       N       E                     dE             d eps       ncg     rms          rms(c)
DAV:   1     0.347809338263E+03    0.34781E+03   -0.11220E+04 72000   0.183E+03
DAV:   2     0.405795905895E+02   -0.30723E+03   -0.29933E+03 88552   0.476E+02
DAV:   3    -0.168617085905E+02   -0.57441E+02   -0.55355E+02125608   0.204E+02
DAV:   4    -0.231392496036E+02   -0.62775E+01   -0.59986E+01133184   0.652E+01
DAV:   5    -0.238059667149E+02   -0.66672E+00   -0.64534E+00131808   0.196E+01    0.198E+01
DAV:   6    -0.230086655155E+02    0.79730E+00   -0.52365E+00114012   0.216E+01    0.708E+00
DAV:   7    -0.230305103859E+02   -0.21845E-01   -0.63791E-01139372   0.636E+00    0.482E+00
DAV:   8    -0.230517188633E+02   -0.21208E-01   -0.71719E-02133088   0.209E+00    0.253E+00
DAV:   9    -0.230871455027E+02   -0.35427E-01   -0.25735E-01119524   0.376E+00    0.180E+00
DAV:  10    -0.230656726713E+02    0.21473E-01   -0.22341E-01108280   0.361E+00    0.547E-01
DAV:  11    -0.230645523535E+02    0.11203E-02   -0.72277E-03115956   0.866E-01    0.189E-01
DAV:  12    -0.230645775174E+02   -0.25164E-04   -0.73296E-04123484   0.239E-01    0.358E-02
DAV:  13    -0.230645919400E+02   -0.14423E-04   -0.68480E-05138152   0.656E-02    0.317E-02
DAV:  14    -0.230645971582E+02   -0.52182E-05   -0.10033E-05103944   0.297E-02    0.118E-02
DAV:  15    -0.230645970959E+02    0.62318E-07   -0.94928E-06102668   0.213E-02
   1 F= -.23064597E+02 E0= -.23064555E+02  d E =-.230646E+02  mag=    -0.0000    -0.0000    -0.0000
