 vasp.6.4.2 20Jul23 (build Jan 06 2024 17:31:04) complex                        
  
 executed on             LinuxIFC date 2024.12.23  12:56:04
 running   64 mpi-ranks, with    1 threads/rank, on    1 nodes
 distrk:  each k-point on    8 cores,    8 groups
 distr:  one band on NCORE=   2 cores,    4 groups


--------------------------------------------------------------------------------------------------------


 INCAR:
   ENCUT = 500.000000
   KSPACING = 0.200000
   SIGMA = 0.050000
   POTIM = 0.2
   EDIFF = 1.00e-06
   ALGO = normal
   GGA = PE
   PREC = Accurate
   IBRION = 2
   ISIF = 4
   ISMEAR = 1
   ISYM = 0
   LDAUTYPE = 4
   LMAXMIX = 8
   MAXMIX = 60
   NELMIN = 4
   NSW = 1
   NWRITE = 1
   NBLOCK = 1
   LDAUL = 3
   LDAUJ = 0.0
   LASPH = .TRUE.
   LCHARG = .FALSE.
   LDAU = .TRUE.
   LWAVE = .FALSE.
   LSORBIT = .TRUE.
   GGA_COMPAT = .FALSE.
   LORBMOM = .TRUE.
   LREAL = False
   MAGMOM = 6*0
   LDAUU = 1.8
   KPAR = 8
   NPAR = 4

 POTCAR:    PAW_PBE U 06Sep2000                   
 POTCAR:    PAW_PBE U 06Sep2000                   
  local pseudopotential read in
  partial core-charges read in
  partial kinetic energy density read in
  atomic valenz-charges read in
  non local Contribution for L=           0  read in
    real space projection operators read in
  non local Contribution for L=           0  read in
    real space projection operators read in
  non local Contribution for L=           1  read in
    real space projection operators read in
  non local Contribution for L=           1  read in
    real space projection operators read in
  non local Contribution for L=           2  read in
    real space projection operators read in
  non local Contribution for L=           2  read in
    real space projection operators read in
  non local Contribution for L=           3  read in
    real space projection operators read in
  non local Contribution for L=           3  read in
    real space projection operators read in
    PAW grid and wavefunctions read in
 
   number of l-projection  operators is LMAX  =           8
   number of lm-projection operators is LMMAX =          32
 
  PAW_PBE U 06Sep2000                   :
 energy of atom  1       EATOM=-1405.3058
 kinetic energy error for atom=    0.0017 (will be added to EATOM!!)
 
 
 POSCAR: U
  positions in direct lattice
  No initial velocities read in
 exchange correlation table for  LEXCH =        8
   RHO(1)=    0.500       N(1)  =     2000
   RHO(2)=  100.500       N(2)  =     4000
 


--------------------------------------------------------------------------------------------------------


 ion  position               nearest neighbor table
   1  0.000  0.000  0.000-   2 2.86   2 2.86   2 2.86   2 2.86   2 2.86   2 2.86   2 2.86   2 2.86

   2  0.500  0.500  0.500-   1 2.86   1 2.86   1 2.86   1 2.86   1 2.86   1 2.86   1 2.86   1 2.86

 

IMPORTANT INFORMATION: All symmetrisations will be switched off!
NOSYMM: (Re-)initialisation of all symmetry stuff for point group C_1.


----------------------------------------------------------------------------------------

                                     Primitive cell                                     

  volume of cell :      36.0000

  direct lattice vectors                    reciprocal lattice vectors
     3.301927249  0.000000000  0.000000000     0.302853432  0.000000000  0.000000000
    -0.000000000  3.301927249  0.000000000     0.000000000  0.302853432  0.000000000
     0.000000000  0.000000000  3.301927249    -0.000000000 -0.000000000  0.302853432

  length of vectors
     3.301927249  3.301927249  3.301927249     0.302853432  0.302853432  0.302853432

  position of ions in fractional coordinates (direct lattice)
     0.000000000  0.000000000  0.000000000
     0.500000000  0.500000000  0.500000000

  ion indices of the primitive-cell ions
   primitive index   ion index
                 1           1
                 2           2

----------------------------------------------------------------------------------------

 
 -----------------------------------------------------------------------------
|                                                                             |
|           W    W    AA    RRRRR   N    N  II  N    N   GGGG   !!!           |
|           W    W   A  A   R    R  NN   N  II  NN   N  G    G  !!!           |
|           W    W  A    A  R    R  N N  N  II  N N  N  G       !!!           |
|           W WW W  AAAAAA  RRRRR   N  N N  II  N  N N  G  GGG   !            |
|           WW  WW  A    A  R   R   N   NN  II  N   NN  G    G                |
|           W    W  A    A  R    R  N    N  II  N    N   GGGG   !!!           |
|                                                                             |
|     The requested file  could not be found or opened for reading            |
|     k-point information. Automatic k-point generation is used as a          |
|     fallback, which may lead to unwanted results.                           |
|                                                                             |
 -----------------------------------------------------------------------------

 

Automatic generation of k-mesh.
 Grid dimensions derived from KSPACING:
 generate k-points for:   10   10   10

 Generating k-lattice:

  Cartesian coordinates                     Fractional coordinates (reciprocal lattice)
     0.030285343  0.000000000  0.000000000     0.100000000  0.000000000  0.000000000
     0.000000000  0.030285343  0.000000000     0.000000000  0.100000000  0.000000000
    -0.000000000 -0.000000000  0.030285343    -0.000000000 -0.000000000  0.100000000

  Length of vectors
     0.030285343  0.030285343  0.030285343

  Shift w.r.t. Gamma in fractional coordinates (k-lattice)
     0.000000000  0.000000000  0.000000000

 
 Subroutine IBZKPT returns following result:
 ===========================================
 
 Found   1000 irreducible k-points:
 
 Following reciprocal coordinates:
            Coordinates               Weight
  0.000000  0.000000  0.000000      1.000000
  0.100000  0.000000  0.000000      1.000000
 -0.100000 -0.000000  0.000000      1.000000
  0.000000  0.100000  0.000000      1.000000
  0.000000 -0.100000  0.000000      1.000000
 -0.000000 -0.000000  0.100000      1.000000
  0.000000  0.000000 -0.100000      1.000000
  0.200000  0.000000  0.000000      1.000000
 -0.200000 -0.000000  0.000000      1.000000
  0.000000  0.200000  0.000000      1.000000
  0.000000 -0.200000  0.000000      1.000000
 -0.000000 -0.000000  0.200000      1.000000
  0.000000  0.000000 -0.200000      1.000000
  0.300000  0.000000  0.000000      1.000000
 -0.300000 -0.000000  0.000000      1.000000
  0.000000  0.300000  0.000000      1.000000
  0.000000 -0.300000  0.000000      1.000000
 -0.000000 -0.000000  0.300000      1.000000
  0.000000  0.000000 -0.300000      1.000000
  0.400000  0.000000  0.000000      1.000000
 -0.400000 -0.000000  0.000000      1.000000
  0.000000  0.400000  0.000000      1.000000
  0.000000 -0.400000  0.000000      1.000000
 -0.000000  0.000000  0.400000      1.000000
  0.000000 -0.000000 -0.400000      1.000000
  0.500000  0.000000  0.000000      1.000000
  0.000000  0.500000  0.000000      1.000000
 -0.000000 -0.000000  0.500000      1.000000
  0.100000  0.100000  0.000000      1.000000
 -0.100000 -0.100000  0.000000      1.000000
 -0.000000  0.100000  0.100000      1.000000
  0.000000 -0.100000 -0.100000      1.000000
  0.100000  0.000000  0.100000      1.000000
 -0.100000 -0.000000 -0.100000      1.000000
 -0.100000  0.100000  0.000000      1.000000
  0.100000 -0.100000  0.000000      1.000000
 -0.100000 -0.000000  0.100000      1.000000
  0.100000  0.000000 -0.100000      1.000000
 -0.000000 -0.100000  0.100000      1.000000
  0.000000  0.100000 -0.100000      1.000000
  0.200000  0.100000  0.000000      1.000000
 -0.200000 -0.100000  0.000000      1.000000
 -0.000000  0.200000  0.100000      1.000000
  0.000000 -0.200000 -0.100000      1.000000
  0.100000 -0.000000  0.200000      1.000000
 -0.100000  0.000000 -0.200000      1.000000
 -0.100000  0.200000  0.000000      1.000000
  0.100000 -0.200000  0.000000      1.000000
 -0.200000 -0.000000  0.100000      1.000000
  0.200000  0.000000 -0.100000      1.000000
 -0.000000  0.100000  0.200000      1.000000
  0.000000 -0.100000 -0.200000      1.000000
 -0.000000 -0.200000  0.100000      1.000000
  0.000000  0.200000 -0.100000      1.000000
 -0.100000 -0.000000  0.200000      1.000000
  0.100000  0.000000 -0.200000      1.000000
  0.200000  0.000000  0.100000      1.000000
 -0.200000 -0.000000 -0.100000      1.000000
 -0.000000 -0.100000  0.200000      1.000000
  0.000000  0.100000 -0.200000      1.000000
  0.200000 -0.100000  0.000000      1.000000
 -0.200000  0.100000  0.000000      1.000000
  0.100000  0.200000  0.000000      1.000000
 -0.100000 -0.200000  0.000000      1.000000
  0.300000  0.100000  0.000000      1.000000
 -0.300000 -0.100000  0.000000      1.000000
 -0.000000  0.300000  0.100000      1.000000
  0.000000 -0.300000 -0.100000      1.000000
  0.100000  0.000000  0.300000      1.000000
 -0.100000 -0.000000 -0.300000      1.000000
 -0.100000  0.300000  0.000000      1.000000
  0.100000 -0.300000  0.000000      1.000000
 -0.300000 -0.000000  0.100000      1.000000
  0.300000  0.000000 -0.100000      1.000000
 -0.000000  0.100000  0.300000      1.000000
  0.000000 -0.100000 -0.300000      1.000000
 -0.000000 -0.300000  0.100000      1.000000
  0.000000  0.300000 -0.100000      1.000000
 -0.100000 -0.000000  0.300000      1.000000
  0.100000  0.000000 -0.300000      1.000000
  0.300000  0.000000  0.100000      1.000000
 -0.300000 -0.000000 -0.100000      1.000000
 -0.000000 -0.100000  0.300000      1.000000
  0.000000  0.100000 -0.300000      1.000000
  0.300000 -0.100000  0.000000      1.000000
 -0.300000  0.100000  0.000000      1.000000
  0.100000  0.300000  0.000000      1.000000
 -0.100000 -0.300000  0.000000      1.000000
  0.400000  0.100000  0.000000      1.000000
 -0.400000 -0.100000  0.000000      1.000000
 -0.000000  0.400000  0.100000      1.000000
  0.000000 -0.400000 -0.100000      1.000000
  0.100000 -0.000000  0.400000      1.000000
 -0.100000  0.000000 -0.400000      1.000000
 -0.100000  0.400000  0.000000      1.000000
  0.100000 -0.400000  0.000000      1.000000
 -0.400000 -0.000000  0.100000      1.000000
  0.400000  0.000000 -0.100000      1.000000
 -0.000000  0.100000  0.400000      1.000000
  0.000000 -0.100000 -0.400000      1.000000
 -0.000000 -0.400000  0.100000      1.000000
  0.000000  0.400000 -0.100000      1.000000
 -0.100000 -0.000000  0.400000      1.000000
  0.100000  0.000000 -0.400000      1.000000
  0.400000  0.000000  0.100000      1.000000
 -0.400000 -0.000000 -0.100000      1.000000
 -0.000000 -0.100000  0.400000      1.000000
  0.000000  0.100000 -0.400000      1.000000
  0.400000 -0.100000  0.000000      1.000000
 -0.400000  0.100000  0.000000      1.000000
  0.100000  0.400000  0.000000      1.000000
 -0.100000 -0.400000  0.000000      1.000000
  0.500000  0.100000  0.000000      1.000000
  0.500000 -0.100000  0.000000      1.000000
 -0.000000  0.500000  0.100000      1.000000
  0.000000  0.500000 -0.100000      1.000000
  0.100000 -0.000000  0.500000      1.000000
 -0.100000 -0.000000  0.500000      1.000000
 -0.100000  0.500000  0.000000      1.000000
  0.100000  0.500000  0.000000      1.000000
  0.500000  0.000000  0.100000      1.000000
  0.500000  0.000000 -0.100000      1.000000
 -0.000000  0.100000  0.500000      1.000000
 -0.000000 -0.100000  0.500000      1.000000
  0.200000  0.200000  0.000000      1.000000
 -0.200000 -0.200000  0.000000      1.000000
 -0.000000  0.200000  0.200000      1.000000
  0.000000 -0.200000 -0.200000      1.000000
  0.200000  0.000000  0.200000      1.000000
 -0.200000 -0.000000 -0.200000      1.000000
 -0.200000  0.200000  0.000000      1.000000
  0.200000 -0.200000  0.000000      1.000000
 -0.200000 -0.000000  0.200000      1.000000
  0.200000  0.000000 -0.200000      1.000000
 -0.000000 -0.200000  0.200000      1.000000
  0.000000  0.200000 -0.200000      1.000000
  0.300000  0.200000  0.000000      1.000000
 -0.300000 -0.200000  0.000000      1.000000
 -0.000000  0.300000  0.200000      1.000000
  0.000000 -0.300000 -0.200000      1.000000
  0.200000  0.000000  0.300000      1.000000
 -0.200000 -0.000000 -0.300000      1.000000
 -0.200000  0.300000  0.000000      1.000000
  0.200000 -0.300000  0.000000      1.000000
 -0.300000 -0.000000  0.200000      1.000000
  0.300000  0.000000 -0.200000      1.000000
 -0.000000  0.200000  0.300000      1.000000
  0.000000 -0.200000 -0.300000      1.000000
 -0.000000 -0.300000  0.200000      1.000000
  0.000000  0.300000 -0.200000      1.000000
 -0.200000  0.000000  0.300000      1.000000
  0.200000 -0.000000 -0.300000      1.000000
  0.300000  0.000000  0.200000      1.000000
 -0.300000 -0.000000 -0.200000      1.000000
 -0.000000 -0.200000  0.300000      1.000000
  0.000000  0.200000 -0.300000      1.000000
  0.300000 -0.200000  0.000000      1.000000
 -0.300000  0.200000  0.000000      1.000000
  0.200000  0.300000  0.000000      1.000000
 -0.200000 -0.300000  0.000000      1.000000
  0.400000  0.200000  0.000000      1.000000
 -0.400000 -0.200000  0.000000      1.000000
 -0.000000  0.400000  0.200000      1.000000
  0.000000 -0.400000 -0.200000      1.000000
  0.200000  0.000000  0.400000      1.000000
 -0.200000 -0.000000 -0.400000      1.000000
 -0.200000  0.400000  0.000000      1.000000
  0.200000 -0.400000  0.000000      1.000000
 -0.400000 -0.000000  0.200000      1.000000
  0.400000  0.000000 -0.200000      1.000000
 -0.000000  0.200000  0.400000      1.000000
  0.000000 -0.200000 -0.400000      1.000000
 -0.000000 -0.400000  0.200000      1.000000
  0.000000  0.400000 -0.200000      1.000000
 -0.200000 -0.000000  0.400000      1.000000
  0.200000  0.000000 -0.400000      1.000000
  0.400000 -0.000000  0.200000      1.000000
 -0.400000  0.000000 -0.200000      1.000000
 -0.000000 -0.200000  0.400000      1.000000
  0.000000  0.200000 -0.400000      1.000000
  0.400000 -0.200000  0.000000      1.000000
 -0.400000  0.200000  0.000000      1.000000
  0.200000  0.400000  0.000000      1.000000
 -0.200000 -0.400000  0.000000      1.000000
  0.500000  0.200000  0.000000      1.000000
  0.500000 -0.200000  0.000000      1.000000
 -0.000000  0.500000  0.200000      1.000000
  0.000000  0.500000 -0.200000      1.000000
  0.200000  0.000000  0.500000      1.000000
 -0.200000 -0.000000  0.500000      1.000000
 -0.200000  0.500000  0.000000      1.000000
  0.200000  0.500000  0.000000      1.000000
  0.500000  0.000000  0.200000      1.000000
  0.500000  0.000000 -0.200000      1.000000
 -0.000000  0.200000  0.500000      1.000000
 -0.000000 -0.200000  0.500000      1.000000
  0.300000  0.300000  0.000000      1.000000
 -0.300000 -0.300000  0.000000      1.000000
 -0.000000  0.300000  0.300000      1.000000
  0.000000 -0.300000 -0.300000      1.000000
  0.300000 -0.000000  0.300000      1.000000
 -0.300000  0.000000 -0.300000      1.000000
 -0.300000  0.300000  0.000000      1.000000
  0.300000 -0.300000  0.000000      1.000000
 -0.300000 -0.000000  0.300000      1.000000
  0.300000  0.000000 -0.300000      1.000000
 -0.000000 -0.300000  0.300000      1.000000
  0.000000  0.300000 -0.300000      1.000000
  0.400000  0.300000  0.000000      1.000000
 -0.400000 -0.300000  0.000000      1.000000
 -0.000000  0.400000  0.300000      1.000000
  0.000000 -0.400000 -0.300000      1.000000
  0.300000  0.000000  0.400000      1.000000
 -0.300000 -0.000000 -0.400000      1.000000
 -0.300000  0.400000  0.000000      1.000000
  0.300000 -0.400000  0.000000      1.000000
 -0.400000 -0.000000  0.300000      1.000000
  0.400000  0.000000 -0.300000      1.000000
 -0.000000  0.300000  0.400000      1.000000
  0.000000 -0.300000 -0.400000      1.000000
 -0.000000 -0.400000  0.300000      1.000000
  0.000000  0.400000 -0.300000      1.000000
 -0.300000 -0.000000  0.400000      1.000000
  0.300000  0.000000 -0.400000      1.000000
  0.400000 -0.000000  0.300000      1.000000
 -0.400000  0.000000 -0.300000      1.000000
 -0.000000 -0.300000  0.400000      1.000000
  0.000000  0.300000 -0.400000      1.000000
  0.400000 -0.300000  0.000000      1.000000
 -0.400000  0.300000  0.000000      1.000000
  0.300000  0.400000  0.000000      1.000000
 -0.300000 -0.400000  0.000000      1.000000
  0.500000  0.300000  0.000000      1.000000
  0.500000 -0.300000  0.000000      1.000000
 -0.000000  0.500000  0.300000      1.000000
  0.000000  0.500000 -0.300000      1.000000
  0.300000  0.000000  0.500000      1.000000
 -0.300000 -0.000000  0.500000      1.000000
 -0.300000  0.500000  0.000000      1.000000
  0.300000  0.500000  0.000000      1.000000
  0.500000  0.000000  0.300000      1.000000
  0.500000  0.000000 -0.300000      1.000000
 -0.000000  0.300000  0.500000      1.000000
 -0.000000 -0.300000  0.500000      1.000000
  0.400000  0.400000  0.000000      1.000000
 -0.400000 -0.400000  0.000000      1.000000
 -0.000000  0.400000  0.400000      1.000000
  0.000000 -0.400000 -0.400000      1.000000
  0.400000  0.000000  0.400000      1.000000
 -0.400000 -0.000000 -0.400000      1.000000
 -0.400000  0.400000  0.000000      1.000000
  0.400000 -0.400000  0.000000      1.000000
 -0.400000 -0.000000  0.400000      1.000000
  0.400000  0.000000 -0.400000      1.000000
 -0.000000 -0.400000  0.400000      1.000000
  0.000000  0.400000 -0.400000      1.000000
  0.500000  0.400000  0.000000      1.000000
  0.500000 -0.400000  0.000000      1.000000
 -0.000000  0.500000  0.400000      1.000000
  0.000000  0.500000 -0.400000      1.000000
  0.400000  0.000000  0.500000      1.000000
 -0.400000  0.000000  0.500000      1.000000
 -0.400000  0.500000  0.000000      1.000000
  0.400000  0.500000  0.000000      1.000000
  0.500000  0.000000  0.400000      1.000000
  0.500000  0.000000 -0.400000      1.000000
 -0.000000  0.400000  0.500000      1.000000
 -0.000000 -0.400000  0.500000      1.000000
  0.500000  0.500000  0.000000      1.000000
 -0.000000  0.500000  0.500000      1.000000
  0.500000 -0.000000  0.500000      1.000000
  0.100000  0.100000  0.100000      1.000000
 -0.100000 -0.100000 -0.100000      1.000000
 -0.100000  0.100000  0.100000      1.000000
  0.100000 -0.100000 -0.100000      1.000000
 -0.100000 -0.100000  0.100000      1.000000
  0.100000  0.100000 -0.100000      1.000000
  0.100000 -0.100000  0.100000      1.000000
 -0.100000  0.100000 -0.100000      1.000000
  0.200000  0.100000  0.100000      1.000000
 -0.200000 -0.100000 -0.100000      1.000000
  0.100000  0.200000  0.100000      1.000000
 -0.100000 -0.200000 -0.100000      1.000000
  0.100000  0.100000  0.200000      1.000000
 -0.100000 -0.100000 -0.200000      1.000000
 -0.100000  0.200000  0.100000      1.000000
  0.100000 -0.200000 -0.100000      1.000000
 -0.200000  0.100000  0.100000      1.000000
  0.200000 -0.100000 -0.100000      1.000000
 -0.100000  0.100000  0.200000      1.000000
  0.100000 -0.100000 -0.200000      1.000000
 -0.200000 -0.100000  0.100000      1.000000
  0.200000  0.100000 -0.100000      1.000000
 -0.100000 -0.200000  0.100000      1.000000
  0.100000  0.200000 -0.100000      1.000000
 -0.100000 -0.100000  0.200000      1.000000
  0.100000  0.100000 -0.200000      1.000000
  0.100000 -0.200000  0.100000      1.000000
 -0.100000  0.200000 -0.100000      1.000000
  0.200000 -0.100000  0.100000      1.000000
 -0.200000  0.100000 -0.100000      1.000000
  0.100000 -0.100000  0.200000      1.000000
 -0.100000  0.100000 -0.200000      1.000000
  0.300000  0.100000  0.100000      1.000000
 -0.300000 -0.100000 -0.100000      1.000000
  0.100000  0.300000  0.100000      1.000000
 -0.100000 -0.300000 -0.100000      1.000000
  0.100000  0.100000  0.300000      1.000000
 -0.100000 -0.100000 -0.300000      1.000000
 -0.100000  0.300000  0.100000      1.000000
  0.100000 -0.300000 -0.100000      1.000000
 -0.300000  0.100000  0.100000      1.000000
  0.300000 -0.100000 -0.100000      1.000000
 -0.100000  0.100000  0.300000      1.000000
  0.100000 -0.100000 -0.300000      1.000000
 -0.300000 -0.100000  0.100000      1.000000
  0.300000  0.100000 -0.100000      1.000000
 -0.100000 -0.300000  0.100000      1.000000
  0.100000  0.300000 -0.100000      1.000000
 -0.100000 -0.100000  0.300000      1.000000
  0.100000  0.100000 -0.300000      1.000000
  0.100000 -0.300000  0.100000      1.000000
 -0.100000  0.300000 -0.100000      1.000000
  0.300000 -0.100000  0.100000      1.000000
 -0.300000  0.100000 -0.100000      1.000000
  0.100000 -0.100000  0.300000      1.000000
 -0.100000  0.100000 -0.300000      1.000000
  0.400000  0.100000  0.100000      1.000000
 -0.400000 -0.100000 -0.100000      1.000000
  0.100000  0.400000  0.100000      1.000000
 -0.100000 -0.400000 -0.100000      1.000000
  0.100000  0.100000  0.400000      1.000000
 -0.100000 -0.100000 -0.400000      1.000000
 -0.100000  0.400000  0.100000      1.000000
  0.100000 -0.400000 -0.100000      1.000000
 -0.400000  0.100000  0.100000      1.000000
  0.400000 -0.100000 -0.100000      1.000000
 -0.100000  0.100000  0.400000      1.000000
  0.100000 -0.100000 -0.400000      1.000000
 -0.400000 -0.100000  0.100000      1.000000
  0.400000  0.100000 -0.100000      1.000000
 -0.100000 -0.400000  0.100000      1.000000
  0.100000  0.400000 -0.100000      1.000000
 -0.100000 -0.100000  0.400000      1.000000
  0.100000  0.100000 -0.400000      1.000000
  0.100000 -0.400000  0.100000      1.000000
 -0.100000  0.400000 -0.100000      1.000000
  0.400000 -0.100000  0.100000      1.000000
 -0.400000  0.100000 -0.100000      1.000000
  0.100000 -0.100000  0.400000      1.000000
 -0.100000  0.100000 -0.400000      1.000000
  0.500000  0.100000  0.100000      1.000000
  0.500000 -0.100000 -0.100000      1.000000
  0.100000  0.500000  0.100000      1.000000
 -0.100000  0.500000 -0.100000      1.000000
  0.100000  0.100000  0.500000      1.000000
 -0.100000 -0.100000  0.500000      1.000000
 -0.100000  0.500000  0.100000      1.000000
  0.100000  0.500000 -0.100000      1.000000
 -0.100000  0.100000  0.500000      1.000000
  0.100000 -0.100000  0.500000      1.000000
  0.500000 -0.100000  0.100000      1.000000
  0.500000  0.100000 -0.100000      1.000000
  0.200000  0.200000  0.100000      1.000000
 -0.200000 -0.200000 -0.100000      1.000000
  0.100000  0.200000  0.200000      1.000000
 -0.100000 -0.200000 -0.200000      1.000000
  0.200000  0.100000  0.200000      1.000000
 -0.200000 -0.100000 -0.200000      1.000000
 -0.200000  0.200000  0.100000      1.000000
  0.200000 -0.200000 -0.100000      1.000000
 -0.200000  0.100000  0.200000      1.000000
  0.200000 -0.100000 -0.200000      1.000000
 -0.100000  0.200000  0.200000      1.000000
  0.100000 -0.200000 -0.200000      1.000000
 -0.200000 -0.200000  0.100000      1.000000
  0.200000  0.200000 -0.100000      1.000000
 -0.100000 -0.200000  0.200000      1.000000
  0.100000  0.200000 -0.200000      1.000000
 -0.200000 -0.100000  0.200000      1.000000
  0.200000  0.100000 -0.200000      1.000000
  0.200000 -0.200000  0.100000      1.000000
 -0.200000  0.200000 -0.100000      1.000000
  0.200000 -0.100000  0.200000      1.000000
 -0.200000  0.100000 -0.200000      1.000000
  0.100000 -0.200000  0.200000      1.000000
 -0.100000  0.200000 -0.200000      1.000000
  0.300000  0.200000  0.100000      1.000000
 -0.300000 -0.200000 -0.100000      1.000000
  0.100000  0.300000  0.200000      1.000000
 -0.100000 -0.300000 -0.200000      1.000000
  0.200000  0.100000  0.300000      1.000000
 -0.200000 -0.100000 -0.300000      1.000000
 -0.200000  0.300000  0.100000      1.000000
  0.200000 -0.300000 -0.100000      1.000000
 -0.300000  0.100000  0.200000      1.000000
  0.300000 -0.100000 -0.200000      1.000000
 -0.100000  0.200000  0.300000      1.000000
  0.100000 -0.200000 -0.300000      1.000000
 -0.300000 -0.200000  0.100000      1.000000
  0.300000  0.200000 -0.100000      1.000000
 -0.100000 -0.300000  0.200000      1.000000
  0.100000  0.300000 -0.200000      1.000000
 -0.200000 -0.100000  0.300000      1.000000
  0.200000  0.100000 -0.300000      1.000000
  0.200000 -0.300000  0.100000      1.000000
 -0.200000  0.300000 -0.100000      1.000000
  0.300000 -0.100000  0.200000      1.000000
 -0.300000  0.100000 -0.200000      1.000000
  0.100000 -0.200000  0.300000      1.000000
 -0.100000  0.200000 -0.300000      1.000000
  0.100000 -0.300000 -0.200000      1.000000
 -0.100000  0.300000  0.200000      1.000000
  0.200000 -0.100000 -0.300000      1.000000
 -0.200000  0.100000  0.300000      1.000000
  0.300000 -0.200000 -0.100000      1.000000
 -0.300000  0.200000  0.100000      1.000000
  0.100000  0.200000 -0.300000      1.000000
 -0.100000 -0.200000  0.300000      1.000000
  0.200000  0.300000 -0.100000      1.000000
 -0.200000 -0.300000  0.100000      1.000000
  0.300000  0.100000 -0.200000      1.000000
 -0.300000 -0.100000  0.200000      1.000000
 -0.200000  0.100000 -0.300000      1.000000
  0.200000 -0.100000  0.300000      1.000000
 -0.300000  0.200000 -0.100000      1.000000
  0.300000 -0.200000  0.100000      1.000000
 -0.100000  0.300000 -0.200000      1.000000
  0.100000 -0.300000  0.200000      1.000000
 -0.300000 -0.100000 -0.200000      1.000000
  0.300000  0.100000  0.200000      1.000000
 -0.200000 -0.300000 -0.100000      1.000000
  0.200000  0.300000  0.100000      1.000000
 -0.100000 -0.200000 -0.300000      1.000000
  0.100000  0.200000  0.300000      1.000000
  0.400000  0.200000  0.100000      1.000000
 -0.400000 -0.200000 -0.100000      1.000000
  0.100000  0.400000  0.200000      1.000000
 -0.100000 -0.400000 -0.200000      1.000000
  0.200000  0.100000  0.400000      1.000000
 -0.200000 -0.100000 -0.400000      1.000000
 -0.200000  0.400000  0.100000      1.000000
  0.200000 -0.400000 -0.100000      1.000000
 -0.400000  0.100000  0.200000      1.000000
  0.400000 -0.100000 -0.200000      1.000000
 -0.100000  0.200000  0.400000      1.000000
  0.100000 -0.200000 -0.400000      1.000000
 -0.400000 -0.200000  0.100000      1.000000
  0.400000  0.200000 -0.100000      1.000000
 -0.100000 -0.400000  0.200000      1.000000
  0.100000  0.400000 -0.200000      1.000000
 -0.200000 -0.100000  0.400000      1.000000
  0.200000  0.100000 -0.400000      1.000000
  0.200000 -0.400000  0.100000      1.000000
 -0.200000  0.400000 -0.100000      1.000000
  0.400000 -0.100000  0.200000      1.000000
 -0.400000  0.100000 -0.200000      1.000000
  0.100000 -0.200000  0.400000      1.000000
 -0.100000  0.200000 -0.400000      1.000000
  0.100000 -0.400000 -0.200000      1.000000
 -0.100000  0.400000  0.200000      1.000000
  0.200000 -0.100000 -0.400000      1.000000
 -0.200000  0.100000  0.400000      1.000000
  0.400000 -0.200000 -0.100000      1.000000
 -0.400000  0.200000  0.100000      1.000000
  0.100000  0.200000 -0.400000      1.000000
 -0.100000 -0.200000  0.400000      1.000000
  0.200000  0.400000 -0.100000      1.000000
 -0.200000 -0.400000  0.100000      1.000000
  0.400000  0.100000 -0.200000      1.000000
 -0.400000 -0.100000  0.200000      1.000000
 -0.200000  0.100000 -0.400000      1.000000
  0.200000 -0.100000  0.400000      1.000000
 -0.400000  0.200000 -0.100000      1.000000
  0.400000 -0.200000  0.100000      1.000000
 -0.100000  0.400000 -0.200000      1.000000
  0.100000 -0.400000  0.200000      1.000000
 -0.400000 -0.100000 -0.200000      1.000000
  0.400000  0.100000  0.200000      1.000000
 -0.200000 -0.400000 -0.100000      1.000000
  0.200000  0.400000  0.100000      1.000000
 -0.100000 -0.200000 -0.400000      1.000000
  0.100000  0.200000  0.400000      1.000000
  0.500000  0.200000  0.100000      1.000000
  0.500000 -0.200000 -0.100000      1.000000
  0.100000  0.500000  0.200000      1.000000
 -0.100000  0.500000 -0.200000      1.000000
  0.200000  0.100000  0.500000      1.000000
 -0.200000 -0.100000  0.500000      1.000000
 -0.200000  0.500000  0.100000      1.000000
  0.200000  0.500000 -0.100000      1.000000
  0.500000  0.100000  0.200000      1.000000
  0.500000 -0.100000 -0.200000      1.000000
 -0.100000  0.200000  0.500000      1.000000
  0.100000 -0.200000  0.500000      1.000000
  0.500000 -0.200000  0.100000      1.000000
  0.500000  0.200000 -0.100000      1.000000
 -0.100000  0.500000  0.200000      1.000000
  0.100000  0.500000 -0.200000      1.000000
  0.200000  0.500000  0.100000      1.000000
 -0.200000  0.500000 -0.100000      1.000000
  0.500000 -0.100000  0.200000      1.000000
  0.500000  0.100000 -0.200000      1.000000
  0.200000 -0.100000  0.500000      1.000000
 -0.200000  0.100000  0.500000      1.000000
  0.100000  0.200000  0.500000      1.000000
 -0.100000 -0.200000  0.500000      1.000000
  0.300000  0.300000  0.100000      1.000000
 -0.300000 -0.300000 -0.100000      1.000000
  0.100000  0.300000  0.300000      1.000000
 -0.100000 -0.300000 -0.300000      1.000000
  0.300000  0.100000  0.300000      1.000000
 -0.300000 -0.100000 -0.300000      1.000000
 -0.300000  0.300000  0.100000      1.000000
  0.300000 -0.300000 -0.100000      1.000000
 -0.300000  0.100000  0.300000      1.000000
  0.300000 -0.100000 -0.300000      1.000000
 -0.100000  0.300000  0.300000      1.000000
  0.100000 -0.300000 -0.300000      1.000000
 -0.300000 -0.300000  0.100000      1.000000
  0.300000  0.300000 -0.100000      1.000000
 -0.100000 -0.300000  0.300000      1.000000
  0.100000  0.300000 -0.300000      1.000000
 -0.300000 -0.100000  0.300000      1.000000
  0.300000  0.100000 -0.300000      1.000000
  0.300000 -0.300000  0.100000      1.000000
 -0.300000  0.300000 -0.100000      1.000000
  0.300000 -0.100000  0.300000      1.000000
 -0.300000  0.100000 -0.300000      1.000000
  0.100000 -0.300000  0.300000      1.000000
 -0.100000  0.300000 -0.300000      1.000000
  0.400000  0.300000  0.100000      1.000000
 -0.400000 -0.300000 -0.100000      1.000000
  0.100000  0.400000  0.300000      1.000000
 -0.100000 -0.400000 -0.300000      1.000000
  0.300000  0.100000  0.400000      1.000000
 -0.300000 -0.100000 -0.400000      1.000000
 -0.300000  0.400000  0.100000      1.000000
  0.300000 -0.400000 -0.100000      1.000000
 -0.400000  0.100000  0.300000      1.000000
  0.400000 -0.100000 -0.300000      1.000000
 -0.100000  0.300000  0.400000      1.000000
  0.100000 -0.300000 -0.400000      1.000000
 -0.400000 -0.300000  0.100000      1.000000
  0.400000  0.300000 -0.100000      1.000000
 -0.100000 -0.400000  0.300000      1.000000
  0.100000  0.400000 -0.300000      1.000000
 -0.300000 -0.100000  0.400000      1.000000
  0.300000  0.100000 -0.400000      1.000000
  0.300000 -0.400000  0.100000      1.000000
 -0.300000  0.400000 -0.100000      1.000000
  0.400000 -0.100000  0.300000      1.000000
 -0.400000  0.100000 -0.300000      1.000000
  0.100000 -0.300000  0.400000      1.000000
 -0.100000  0.300000 -0.400000      1.000000
  0.100000 -0.400000 -0.300000      1.000000
 -0.100000  0.400000  0.300000      1.000000
  0.300000 -0.100000 -0.400000      1.000000
 -0.300000  0.100000  0.400000      1.000000
  0.400000 -0.300000 -0.100000      1.000000
 -0.400000  0.300000  0.100000      1.000000
  0.100000  0.300000 -0.400000      1.000000
 -0.100000 -0.300000  0.400000      1.000000
  0.300000  0.400000 -0.100000      1.000000
 -0.300000 -0.400000  0.100000      1.000000
  0.400000  0.100000 -0.300000      1.000000
 -0.400000 -0.100000  0.300000      1.000000
 -0.300000  0.100000 -0.400000      1.000000
  0.300000 -0.100000  0.400000      1.000000
 -0.400000  0.300000 -0.100000      1.000000
  0.400000 -0.300000  0.100000      1.000000
 -0.100000  0.400000 -0.300000      1.000000
  0.100000 -0.400000  0.300000      1.000000
 -0.400000 -0.100000 -0.300000      1.000000
  0.400000  0.100000  0.300000      1.000000
 -0.300000 -0.400000 -0.100000      1.000000
  0.300000  0.400000  0.100000      1.000000
 -0.100000 -0.300000 -0.400000      1.000000
  0.100000  0.300000  0.400000      1.000000
  0.500000  0.300000  0.100000      1.000000
  0.500000 -0.300000 -0.100000      1.000000
  0.100000  0.500000  0.300000      1.000000
 -0.100000  0.500000 -0.300000      1.000000
  0.300000  0.100000  0.500000      1.000000
 -0.300000 -0.100000  0.500000      1.000000
 -0.300000  0.500000  0.100000      1.000000
  0.300000  0.500000 -0.100000      1.000000
  0.500000  0.100000  0.300000      1.000000
  0.500000 -0.100000 -0.300000      1.000000
 -0.100000  0.300000  0.500000      1.000000
  0.100000 -0.300000  0.500000      1.000000
  0.500000 -0.300000  0.100000      1.000000
  0.500000  0.300000 -0.100000      1.000000
 -0.100000  0.500000  0.300000      1.000000
  0.100000  0.500000 -0.300000      1.000000
  0.300000  0.500000  0.100000      1.000000
 -0.300000  0.500000 -0.100000      1.000000
  0.500000 -0.100000  0.300000      1.000000
  0.500000  0.100000 -0.300000      1.000000
  0.300000 -0.100000  0.500000      1.000000
 -0.300000  0.100000  0.500000      1.000000
  0.100000  0.300000  0.500000      1.000000
 -0.100000 -0.300000  0.500000      1.000000
  0.400000  0.400000  0.100000      1.000000
 -0.400000 -0.400000 -0.100000      1.000000
  0.100000  0.400000  0.400000      1.000000
 -0.100000 -0.400000 -0.400000      1.000000
  0.400000  0.100000  0.400000      1.000000
 -0.400000 -0.100000 -0.400000      1.000000
 -0.400000  0.400000  0.100000      1.000000
  0.400000 -0.400000 -0.100000      1.000000
 -0.400000  0.100000  0.400000      1.000000
  0.400000 -0.100000 -0.400000      1.000000
 -0.100000  0.400000  0.400000      1.000000
  0.100000 -0.400000 -0.400000      1.000000
 -0.400000 -0.400000  0.100000      1.000000
  0.400000  0.400000 -0.100000      1.000000
 -0.100000 -0.400000  0.400000      1.000000
  0.100000  0.400000 -0.400000      1.000000
 -0.400000 -0.100000  0.400000      1.000000
  0.400000  0.100000 -0.400000      1.000000
  0.400000 -0.400000  0.100000      1.000000
 -0.400000  0.400000 -0.100000      1.000000
  0.400000 -0.100000  0.400000      1.000000
 -0.400000  0.100000 -0.400000      1.000000
  0.100000 -0.400000  0.400000      1.000000
 -0.100000  0.400000 -0.400000      1.000000
  0.500000  0.400000  0.100000      1.000000
  0.500000 -0.400000 -0.100000      1.000000
  0.100000  0.500000  0.400000      1.000000
 -0.100000  0.500000 -0.400000      1.000000
  0.400000  0.100000  0.500000      1.000000
 -0.400000 -0.100000  0.500000      1.000000
 -0.400000  0.500000  0.100000      1.000000
  0.400000  0.500000 -0.100000      1.000000
  0.500000  0.100000  0.400000      1.000000
  0.500000 -0.100000 -0.400000      1.000000
 -0.100000  0.400000  0.500000      1.000000
  0.100000 -0.400000  0.500000      1.000000
  0.500000 -0.400000  0.100000      1.000000
  0.500000  0.400000 -0.100000      1.000000
 -0.100000  0.500000  0.400000      1.000000
  0.100000  0.500000 -0.400000      1.000000
  0.400000  0.500000  0.100000      1.000000
 -0.400000  0.500000 -0.100000      1.000000
  0.500000 -0.100000  0.400000      1.000000
  0.500000  0.100000 -0.400000      1.000000
  0.400000 -0.100000  0.500000      1.000000
 -0.400000  0.100000  0.500000      1.000000
  0.100000  0.400000  0.500000      1.000000
 -0.100000 -0.400000  0.500000      1.000000
  0.500000  0.500000  0.100000      1.000000
  0.500000  0.500000 -0.100000      1.000000
  0.100000  0.500000  0.500000      1.000000
 -0.100000  0.500000  0.500000      1.000000
  0.500000  0.100000  0.500000      1.000000
  0.500000 -0.100000  0.500000      1.000000
  0.200000  0.200000  0.200000      1.000000
 -0.200000 -0.200000 -0.200000      1.000000
 -0.200000  0.200000  0.200000      1.000000
  0.200000 -0.200000 -0.200000      1.000000
 -0.200000 -0.200000  0.200000      1.000000
  0.200000  0.200000 -0.200000      1.000000
  0.200000 -0.200000  0.200000      1.000000
 -0.200000  0.200000 -0.200000      1.000000
  0.300000  0.200000  0.200000      1.000000
 -0.300000 -0.200000 -0.200000      1.000000
  0.200000  0.300000  0.200000      1.000000
 -0.200000 -0.300000 -0.200000      1.000000
  0.200000  0.200000  0.300000      1.000000
 -0.200000 -0.200000 -0.300000      1.000000
 -0.200000  0.300000  0.200000      1.000000
  0.200000 -0.300000 -0.200000      1.000000
 -0.300000  0.200000  0.200000      1.000000
  0.300000 -0.200000 -0.200000      1.000000
 -0.200000  0.200000  0.300000      1.000000
  0.200000 -0.200000 -0.300000      1.000000
 -0.300000 -0.200000  0.200000      1.000000
  0.300000  0.200000 -0.200000      1.000000
 -0.200000 -0.300000  0.200000      1.000000
  0.200000  0.300000 -0.200000      1.000000
 -0.200000 -0.200000  0.300000      1.000000
  0.200000  0.200000 -0.300000      1.000000
  0.200000 -0.300000  0.200000      1.000000
 -0.200000  0.300000 -0.200000      1.000000
  0.300000 -0.200000  0.200000      1.000000
 -0.300000  0.200000 -0.200000      1.000000
  0.200000 -0.200000  0.300000      1.000000
 -0.200000  0.200000 -0.300000      1.000000
  0.400000  0.200000  0.200000      1.000000
 -0.400000 -0.200000 -0.200000      1.000000
  0.200000  0.400000  0.200000      1.000000
 -0.200000 -0.400000 -0.200000      1.000000
  0.200000  0.200000  0.400000      1.000000
 -0.200000 -0.200000 -0.400000      1.000000
 -0.200000  0.400000  0.200000      1.000000
  0.200000 -0.400000 -0.200000      1.000000
 -0.400000  0.200000  0.200000      1.000000
  0.400000 -0.200000 -0.200000      1.000000
 -0.200000  0.200000  0.400000      1.000000
  0.200000 -0.200000 -0.400000      1.000000
 -0.400000 -0.200000  0.200000      1.000000
  0.400000  0.200000 -0.200000      1.000000
 -0.200000 -0.400000  0.200000      1.000000
  0.200000  0.400000 -0.200000      1.000000
 -0.200000 -0.200000  0.400000      1.000000
  0.200000  0.200000 -0.400000      1.000000
  0.200000 -0.400000  0.200000      1.000000
 -0.200000  0.400000 -0.200000      1.000000
  0.400000 -0.200000  0.200000      1.000000
 -0.400000  0.200000 -0.200000      1.000000
  0.200000 -0.200000  0.400000      1.000000
 -0.200000  0.200000 -0.400000      1.000000
  0.500000  0.200000  0.200000      1.000000
  0.500000 -0.200000 -0.200000      1.000000
  0.200000  0.500000  0.200000      1.000000
 -0.200000  0.500000 -0.200000      1.000000
  0.200000  0.200000  0.500000      1.000000
 -0.200000 -0.200000  0.500000      1.000000
 -0.200000  0.500000  0.200000      1.000000
  0.200000  0.500000 -0.200000      1.000000
 -0.200000  0.200000  0.500000      1.000000
  0.200000 -0.200000  0.500000      1.000000
  0.500000 -0.200000  0.200000      1.000000
  0.500000  0.200000 -0.200000      1.000000
  0.300000  0.300000  0.200000      1.000000
 -0.300000 -0.300000 -0.200000      1.000000
  0.200000  0.300000  0.300000      1.000000
 -0.200000 -0.300000 -0.300000      1.000000
  0.300000  0.200000  0.300000      1.000000
 -0.300000 -0.200000 -0.300000      1.000000
 -0.300000  0.300000  0.200000      1.000000
  0.300000 -0.300000 -0.200000      1.000000
 -0.300000  0.200000  0.300000      1.000000
  0.300000 -0.200000 -0.300000      1.000000
 -0.200000  0.300000  0.300000      1.000000
  0.200000 -0.300000 -0.300000      1.000000
 -0.300000 -0.300000  0.200000      1.000000
  0.300000  0.300000 -0.200000      1.000000
 -0.200000 -0.300000  0.300000      1.000000
  0.200000  0.300000 -0.300000      1.000000
 -0.300000 -0.200000  0.300000      1.000000
  0.300000  0.200000 -0.300000      1.000000
  0.300000 -0.300000  0.200000      1.000000
 -0.300000  0.300000 -0.200000      1.000000
  0.300000 -0.200000  0.300000      1.000000
 -0.300000  0.200000 -0.300000      1.000000
  0.200000 -0.300000  0.300000      1.000000
 -0.200000  0.300000 -0.300000      1.000000
  0.400000  0.300000  0.200000      1.000000
 -0.400000 -0.300000 -0.200000      1.000000
  0.200000  0.400000  0.300000      1.000000
 -0.200000 -0.400000 -0.300000      1.000000
  0.300000  0.200000  0.400000      1.000000
 -0.300000 -0.200000 -0.400000      1.000000
 -0.300000  0.400000  0.200000      1.000000
  0.300000 -0.400000 -0.200000      1.000000
 -0.400000  0.200000  0.300000      1.000000
  0.400000 -0.200000 -0.300000      1.000000
 -0.200000  0.300000  0.400000      1.000000
  0.200000 -0.300000 -0.400000      1.000000
 -0.400000 -0.300000  0.200000      1.000000
  0.400000  0.300000 -0.200000      1.000000
 -0.200000 -0.400000  0.300000      1.000000
  0.200000  0.400000 -0.300000      1.000000
 -0.300000 -0.200000  0.400000      1.000000
  0.300000  0.200000 -0.400000      1.000000
  0.300000 -0.400000  0.200000      1.000000
 -0.300000  0.400000 -0.200000      1.000000
  0.400000 -0.200000  0.300000      1.000000
 -0.400000  0.200000 -0.300000      1.000000
  0.200000 -0.300000  0.400000      1.000000
 -0.200000  0.300000 -0.400000      1.000000
  0.200000 -0.400000 -0.300000      1.000000
 -0.200000  0.400000  0.300000      1.000000
  0.300000 -0.200000 -0.400000      1.000000
 -0.300000  0.200000  0.400000      1.000000
  0.400000 -0.300000 -0.200000      1.000000
 -0.400000  0.300000  0.200000      1.000000
  0.200000  0.300000 -0.400000      1.000000
 -0.200000 -0.300000  0.400000      1.000000
  0.300000  0.400000 -0.200000      1.000000
 -0.300000 -0.400000  0.200000      1.000000
  0.400000  0.200000 -0.300000      1.000000
 -0.400000 -0.200000  0.300000      1.000000
 -0.300000  0.200000 -0.400000      1.000000
  0.300000 -0.200000  0.400000      1.000000
 -0.400000  0.300000 -0.200000      1.000000
  0.400000 -0.300000  0.200000      1.000000
 -0.200000  0.400000 -0.300000      1.000000
  0.200000 -0.400000  0.300000      1.000000
 -0.400000 -0.200000 -0.300000      1.000000
  0.400000  0.200000  0.300000      1.000000
 -0.300000 -0.400000 -0.200000      1.000000
  0.300000  0.400000  0.200000      1.000000
 -0.200000 -0.300000 -0.400000      1.000000
  0.200000  0.300000  0.400000      1.000000
  0.500000  0.300000  0.200000      1.000000
  0.500000 -0.300000 -0.200000      1.000000
  0.200000  0.500000  0.300000      1.000000
 -0.200000  0.500000 -0.300000      1.000000
  0.300000  0.200000  0.500000      1.000000
 -0.300000 -0.200000  0.500000      1.000000
 -0.300000  0.500000  0.200000      1.000000
  0.300000  0.500000 -0.200000      1.000000
  0.500000  0.200000  0.300000      1.000000
  0.500000 -0.200000 -0.300000      1.000000
 -0.200000  0.300000  0.500000      1.000000
  0.200000 -0.300000  0.500000      1.000000
  0.500000 -0.300000  0.200000      1.000000
  0.500000  0.300000 -0.200000      1.000000
 -0.200000  0.500000  0.300000      1.000000
  0.200000  0.500000 -0.300000      1.000000
  0.300000  0.500000  0.200000      1.000000
 -0.300000  0.500000 -0.200000      1.000000
  0.500000 -0.200000  0.300000      1.000000
  0.500000  0.200000 -0.300000      1.000000
  0.300000 -0.200000  0.500000      1.000000
 -0.300000  0.200000  0.500000      1.000000
  0.200000  0.300000  0.500000      1.000000
 -0.200000 -0.300000  0.500000      1.000000
  0.400000  0.400000  0.200000      1.000000
 -0.400000 -0.400000 -0.200000      1.000000
  0.200000  0.400000  0.400000      1.000000
 -0.200000 -0.400000 -0.400000      1.000000
  0.400000  0.200000  0.400000      1.000000
 -0.400000 -0.200000 -0.400000      1.000000
 -0.400000  0.400000  0.200000      1.000000
  0.400000 -0.400000 -0.200000      1.000000
 -0.400000  0.200000  0.400000      1.000000
  0.400000 -0.200000 -0.400000      1.000000
 -0.200000  0.400000  0.400000      1.000000
  0.200000 -0.400000 -0.400000      1.000000
 -0.400000 -0.400000  0.200000      1.000000
  0.400000  0.400000 -0.200000      1.000000
 -0.200000 -0.400000  0.400000      1.000000
  0.200000  0.400000 -0.400000      1.000000
 -0.400000 -0.200000  0.400000      1.000000
  0.400000  0.200000 -0.400000      1.000000
  0.400000 -0.400000  0.200000      1.000000
 -0.400000  0.400000 -0.200000      1.000000
  0.400000 -0.200000  0.400000      1.000000
 -0.400000  0.200000 -0.400000      1.000000
  0.200000 -0.400000  0.400000      1.000000
 -0.200000  0.400000 -0.400000      1.000000
  0.500000  0.400000  0.200000      1.000000
  0.500000 -0.400000 -0.200000      1.000000
  0.200000  0.500000  0.400000      1.000000
 -0.200000  0.500000 -0.400000      1.000000
  0.400000  0.200000  0.500000      1.000000
 -0.400000 -0.200000  0.500000      1.000000
 -0.400000  0.500000  0.200000      1.000000
  0.400000  0.500000 -0.200000      1.000000
  0.500000  0.200000  0.400000      1.000000
  0.500000 -0.200000 -0.400000      1.000000
 -0.200000  0.400000  0.500000      1.000000
  0.200000 -0.400000  0.500000      1.000000
  0.500000 -0.400000  0.200000      1.000000
  0.500000  0.400000 -0.200000      1.000000
 -0.200000  0.500000  0.400000      1.000000
  0.200000  0.500000 -0.400000      1.000000
  0.400000  0.500000  0.200000      1.000000
 -0.400000  0.500000 -0.200000      1.000000
  0.500000 -0.200000  0.400000      1.000000
  0.500000  0.200000 -0.400000      1.000000
  0.400000 -0.200000  0.500000      1.000000
 -0.400000  0.200000  0.500000      1.000000
  0.200000  0.400000  0.500000      1.000000
 -0.200000 -0.400000  0.500000      1.000000
  0.500000  0.500000  0.200000      1.000000
  0.500000  0.500000 -0.200000      1.000000
  0.200000  0.500000  0.500000      1.000000
 -0.200000  0.500000  0.500000      1.000000
  0.500000  0.200000  0.500000      1.000000
  0.500000 -0.200000  0.500000      1.000000
  0.300000  0.300000  0.300000      1.000000
 -0.300000 -0.300000 -0.300000      1.000000
 -0.300000  0.300000  0.300000      1.000000
  0.300000 -0.300000 -0.300000      1.000000
 -0.300000 -0.300000  0.300000      1.000000
  0.300000  0.300000 -0.300000      1.000000
  0.300000 -0.300000  0.300000      1.000000
 -0.300000  0.300000 -0.300000      1.000000
  0.400000  0.300000  0.300000      1.000000
 -0.400000 -0.300000 -0.300000      1.000000
  0.300000  0.400000  0.300000      1.000000
 -0.300000 -0.400000 -0.300000      1.000000
  0.300000  0.300000  0.400000      1.000000
 -0.300000 -0.300000 -0.400000      1.000000
 -0.300000  0.400000  0.300000      1.000000
  0.300000 -0.400000 -0.300000      1.000000
 -0.400000  0.300000  0.300000      1.000000
  0.400000 -0.300000 -0.300000      1.000000
 -0.300000  0.300000  0.400000      1.000000
  0.300000 -0.300000 -0.400000      1.000000
 -0.400000 -0.300000  0.300000      1.000000
  0.400000  0.300000 -0.300000      1.000000
 -0.300000 -0.400000  0.300000      1.000000
  0.300000  0.400000 -0.300000      1.000000
 -0.300000 -0.300000  0.400000      1.000000
  0.300000  0.300000 -0.400000      1.000000
  0.300000 -0.400000  0.300000      1.000000
 -0.300000  0.400000 -0.300000      1.000000
  0.400000 -0.300000  0.300000      1.000000
 -0.400000  0.300000 -0.300000      1.000000
  0.300000 -0.300000  0.400000      1.000000
 -0.300000  0.300000 -0.400000      1.000000
  0.500000  0.300000  0.300000      1.000000
  0.500000 -0.300000 -0.300000      1.000000
  0.300000  0.500000  0.300000      1.000000
 -0.300000  0.500000 -0.300000      1.000000
  0.300000  0.300000  0.500000      1.000000
 -0.300000 -0.300000  0.500000      1.000000
 -0.300000  0.500000  0.300000      1.000000
  0.300000  0.500000 -0.300000      1.000000
 -0.300000  0.300000  0.500000      1.000000
  0.300000 -0.300000  0.500000      1.000000
  0.500000 -0.300000  0.300000      1.000000
  0.500000  0.300000 -0.300000      1.000000
  0.400000  0.400000  0.300000      1.000000
 -0.400000 -0.400000 -0.300000      1.000000
  0.300000  0.400000  0.400000      1.000000
 -0.300000 -0.400000 -0.400000      1.000000
  0.400000  0.300000  0.400000      1.000000
 -0.400000 -0.300000 -0.400000      1.000000
 -0.400000  0.400000  0.300000      1.000000
  0.400000 -0.400000 -0.300000      1.000000
 -0.400000  0.300000  0.400000      1.000000
  0.400000 -0.300000 -0.400000      1.000000
 -0.300000  0.400000  0.400000      1.000000
  0.300000 -0.400000 -0.400000      1.000000
 -0.400000 -0.400000  0.300000      1.000000
  0.400000  0.400000 -0.300000      1.000000
 -0.300000 -0.400000  0.400000      1.000000
  0.300000  0.400000 -0.400000      1.000000
 -0.400000 -0.300000  0.400000      1.000000
  0.400000  0.300000 -0.400000      1.000000
  0.400000 -0.400000  0.300000      1.000000
 -0.400000  0.400000 -0.300000      1.000000
  0.400000 -0.300000  0.400000      1.000000
 -0.400000  0.300000 -0.400000      1.000000
  0.300000 -0.400000  0.400000      1.000000
 -0.300000  0.400000 -0.400000      1.000000
  0.500000  0.400000  0.300000      1.000000
  0.500000 -0.400000 -0.300000      1.000000
  0.300000  0.500000  0.400000      1.000000
 -0.300000  0.500000 -0.400000      1.000000
  0.400000  0.300000  0.500000      1.000000
 -0.400000 -0.300000  0.500000      1.000000
 -0.400000  0.500000  0.300000      1.000000
  0.400000  0.500000 -0.300000      1.000000
  0.500000  0.300000  0.400000      1.000000
  0.500000 -0.300000 -0.400000      1.000000
 -0.300000  0.400000  0.500000      1.000000
  0.300000 -0.400000  0.500000      1.000000
  0.500000 -0.400000  0.300000      1.000000
  0.500000  0.400000 -0.300000      1.000000
 -0.300000  0.500000  0.400000      1.000000
  0.300000  0.500000 -0.400000      1.000000
  0.400000  0.500000  0.300000      1.000000
 -0.400000  0.500000 -0.300000      1.000000
  0.500000 -0.300000  0.400000      1.000000
  0.500000  0.300000 -0.400000      1.000000
  0.400000 -0.300000  0.500000      1.000000
 -0.400000  0.300000  0.500000      1.000000
  0.300000  0.400000  0.500000      1.000000
 -0.300000 -0.400000  0.500000      1.000000
  0.500000  0.500000  0.300000      1.000000
  0.500000  0.500000 -0.300000      1.000000
  0.300000  0.500000  0.500000      1.000000
 -0.300000  0.500000  0.500000      1.000000
  0.500000  0.300000  0.500000      1.000000
  0.500000 -0.300000  0.500000      1.000000
  0.400000  0.400000  0.400000      1.000000
 -0.400000 -0.400000 -0.400000      1.000000
 -0.400000  0.400000  0.400000      1.000000
  0.400000 -0.400000 -0.400000      1.000000
 -0.400000 -0.400000  0.400000      1.000000
  0.400000  0.400000 -0.400000      1.000000
  0.400000 -0.400000  0.400000      1.000000
 -0.400000  0.400000 -0.400000      1.000000
  0.500000  0.400000  0.400000      1.000000
  0.500000 -0.400000 -0.400000      1.000000
  0.400000  0.500000  0.400000      1.000000
 -0.400000  0.500000 -0.400000      1.000000
  0.400000  0.400000  0.500000      1.000000
 -0.400000 -0.400000  0.500000      1.000000
 -0.400000  0.500000  0.400000      1.000000
  0.400000  0.500000 -0.400000      1.000000
 -0.400000  0.400000  0.500000      1.000000
  0.400000 -0.400000  0.500000      1.000000
  0.500000 -0.400000  0.400000      1.000000
  0.500000  0.400000 -0.400000      1.000000
  0.500000  0.500000  0.400000      1.000000
  0.500000  0.500000 -0.400000      1.000000
  0.400000  0.500000  0.500000      1.000000
 -0.400000  0.500000  0.500000      1.000000
  0.500000  0.400000  0.500000      1.000000
  0.500000 -0.400000  0.500000      1.000000
  0.500000  0.500000  0.500000      1.000000
 
 Following cartesian coordinates:
            Coordinates               Weight
  0.000000  0.000000  0.000000      1.000000
  0.030285  0.000000  0.000000      1.000000
 -0.030285 -0.000000  0.000000      1.000000
  0.000000  0.030285  0.000000      1.000000
  0.000000 -0.030285  0.000000      1.000000
 -0.000000 -0.000000  0.030285      1.000000
  0.000000  0.000000 -0.030285      1.000000
  0.060571  0.000000  0.000000      1.000000
 -0.060571 -0.000000  0.000000      1.000000
  0.000000  0.060571  0.000000      1.000000
  0.000000 -0.060571  0.000000      1.000000
 -0.000000 -0.000000  0.060571      1.000000
  0.000000  0.000000 -0.060571      1.000000
  0.090856  0.000000  0.000000      1.000000
 -0.090856 -0.000000  0.000000      1.000000
  0.000000  0.090856  0.000000      1.000000
  0.000000 -0.090856  0.000000      1.000000
 -0.000000 -0.000000  0.090856      1.000000
  0.000000  0.000000 -0.090856      1.000000
  0.121141  0.000000  0.000000      1.000000
 -0.121141 -0.000000  0.000000      1.000000
  0.000000  0.121141  0.000000      1.000000
  0.000000 -0.121141  0.000000      1.000000
 -0.000000 -0.000000  0.121141      1.000000
  0.000000  0.000000 -0.121141      1.000000
  0.151427  0.000000  0.000000      1.000000
  0.000000  0.151427  0.000000      1.000000
 -0.000000 -0.000000  0.151427      1.000000
  0.030285  0.030285  0.000000      1.000000
 -0.030285 -0.030285  0.000000      1.000000
 -0.000000  0.030285  0.030285      1.000000
  0.000000 -0.030285 -0.030285      1.000000
  0.030285  0.000000  0.030285      1.000000
 -0.030285 -0.000000 -0.030285      1.000000
 -0.030285  0.030285  0.000000      1.000000
  0.030285 -0.030285  0.000000      1.000000
 -0.030285 -0.000000  0.030285      1.000000
  0.030285  0.000000 -0.030285      1.000000
 -0.000000 -0.030285  0.030285      1.000000
  0.000000  0.030285 -0.030285      1.000000
  0.060571  0.030285  0.000000      1.000000
 -0.060571 -0.030285  0.000000      1.000000
 -0.000000  0.060571  0.030285      1.000000
  0.000000 -0.060571 -0.030285      1.000000
  0.030285 -0.000000  0.060571      1.000000
 -0.030285  0.000000 -0.060571      1.000000
 -0.030285  0.060571  0.000000      1.000000
  0.030285 -0.060571  0.000000      1.000000
 -0.060571 -0.000000  0.030285      1.000000
  0.060571  0.000000 -0.030285      1.000000
 -0.000000  0.030285  0.060571      1.000000
  0.000000 -0.030285 -0.060571      1.000000
 -0.000000 -0.060571  0.030285      1.000000
  0.000000  0.060571 -0.030285      1.000000
 -0.030285 -0.000000  0.060571      1.000000
  0.030285  0.000000 -0.060571      1.000000
  0.060571  0.000000  0.030285      1.000000
 -0.060571 -0.000000 -0.030285      1.000000
 -0.000000 -0.030285  0.060571      1.000000
  0.000000  0.030285 -0.060571      1.000000
  0.060571 -0.030285  0.000000      1.000000
 -0.060571  0.030285  0.000000      1.000000
  0.030285  0.060571  0.000000      1.000000
 -0.030285 -0.060571  0.000000      1.000000
  0.090856  0.030285  0.000000      1.000000
 -0.090856 -0.030285  0.000000      1.000000
 -0.000000  0.090856  0.030285      1.000000
  0.000000 -0.090856 -0.030285      1.000000
  0.030285 -0.000000  0.090856      1.000000
 -0.030285  0.000000 -0.090856      1.000000
 -0.030285  0.090856  0.000000      1.000000
  0.030285 -0.090856  0.000000      1.000000
 -0.090856 -0.000000  0.030285      1.000000
  0.090856  0.000000 -0.030285      1.000000
 -0.000000  0.030285  0.090856      1.000000
  0.000000 -0.030285 -0.090856      1.000000
 -0.000000 -0.090856  0.030285      1.000000
  0.000000  0.090856 -0.030285      1.000000
 -0.030285 -0.000000  0.090856      1.000000
  0.030285  0.000000 -0.090856      1.000000
  0.090856  0.000000  0.030285      1.000000
 -0.090856 -0.000000 -0.030285      1.000000
 -0.000000 -0.030285  0.090856      1.000000
  0.000000  0.030285 -0.090856      1.000000
  0.090856 -0.030285  0.000000      1.000000
 -0.090856  0.030285  0.000000      1.000000
  0.030285  0.090856  0.000000      1.000000
 -0.030285 -0.090856  0.000000      1.000000
  0.121141  0.030285  0.000000      1.000000
 -0.121141 -0.030285  0.000000      1.000000
 -0.000000  0.121141  0.030285      1.000000
  0.000000 -0.121141 -0.030285      1.000000
  0.030285 -0.000000  0.121141      1.000000
 -0.030285  0.000000 -0.121141      1.000000
 -0.030285  0.121141  0.000000      1.000000
  0.030285 -0.121141  0.000000      1.000000
 -0.121141 -0.000000  0.030285      1.000000
  0.121141  0.000000 -0.030285      1.000000
 -0.000000  0.030285  0.121141      1.000000
  0.000000 -0.030285 -0.121141      1.000000
 -0.000000 -0.121141  0.030285      1.000000
  0.000000  0.121141 -0.030285      1.000000
 -0.030285 -0.000000  0.121141      1.000000
  0.030285  0.000000 -0.121141      1.000000
  0.121141  0.000000  0.030285      1.000000
 -0.121141 -0.000000 -0.030285      1.000000
 -0.000000 -0.030285  0.121141      1.000000
  0.000000  0.030285 -0.121141      1.000000
  0.121141 -0.030285  0.000000      1.000000
 -0.121141  0.030285  0.000000      1.000000
  0.030285  0.121141  0.000000      1.000000
 -0.030285 -0.121141  0.000000      1.000000
  0.151427  0.030285  0.000000      1.000000
  0.151427 -0.030285  0.000000      1.000000
 -0.000000  0.151427  0.030285      1.000000
  0.000000  0.151427 -0.030285      1.000000
  0.030285 -0.000000  0.151427      1.000000
 -0.030285 -0.000000  0.151427      1.000000
 -0.030285  0.151427  0.000000      1.000000
  0.030285  0.151427  0.000000      1.000000
  0.151427  0.000000  0.030285      1.000000
  0.151427  0.000000 -0.030285      1.000000
 -0.000000  0.030285  0.151427      1.000000
 -0.000000 -0.030285  0.151427      1.000000
  0.060571  0.060571  0.000000      1.000000
 -0.060571 -0.060571  0.000000      1.000000
 -0.000000  0.060571  0.060571      1.000000
  0.000000 -0.060571 -0.060571      1.000000
  0.060571  0.000000  0.060571      1.000000
 -0.060571 -0.000000 -0.060571      1.000000
 -0.060571  0.060571  0.000000      1.000000
  0.060571 -0.060571  0.000000      1.000000
 -0.060571 -0.000000  0.060571      1.000000
  0.060571  0.000000 -0.060571      1.000000
 -0.000000 -0.060571  0.060571      1.000000
  0.000000  0.060571 -0.060571      1.000000
  0.090856  0.060571  0.000000      1.000000
 -0.090856 -0.060571  0.000000      1.000000
 -0.000000  0.090856  0.060571      1.000000
  0.000000 -0.090856 -0.060571      1.000000
  0.060571 -0.000000  0.090856      1.000000
 -0.060571  0.000000 -0.090856      1.000000
 -0.060571  0.090856  0.000000      1.000000
  0.060571 -0.090856  0.000000      1.000000
 -0.090856 -0.000000  0.060571      1.000000
  0.090856  0.000000 -0.060571      1.000000
 -0.000000  0.060571  0.090856      1.000000
  0.000000 -0.060571 -0.090856      1.000000
 -0.000000 -0.090856  0.060571      1.000000
  0.000000  0.090856 -0.060571      1.000000
 -0.060571 -0.000000  0.090856      1.000000
  0.060571  0.000000 -0.090856      1.000000
  0.090856  0.000000  0.060571      1.000000
 -0.090856 -0.000000 -0.060571      1.000000
 -0.000000 -0.060571  0.090856      1.000000
  0.000000  0.060571 -0.090856      1.000000
  0.090856 -0.060571  0.000000      1.000000
 -0.090856  0.060571  0.000000      1.000000
  0.060571  0.090856  0.000000      1.000000
 -0.060571 -0.090856  0.000000      1.000000
  0.121141  0.060571  0.000000      1.000000
 -0.121141 -0.060571  0.000000      1.000000
 -0.000000  0.121141  0.060571      1.000000
  0.000000 -0.121141 -0.060571      1.000000
  0.060571 -0.000000  0.121141      1.000000
 -0.060571  0.000000 -0.121141      1.000000
 -0.060571  0.121141  0.000000      1.000000
  0.060571 -0.121141  0.000000      1.000000
 -0.121141 -0.000000  0.060571      1.000000
  0.121141  0.000000 -0.060571      1.000000
 -0.000000  0.060571  0.121141      1.000000
  0.000000 -0.060571 -0.121141      1.000000
 -0.000000 -0.121141  0.060571      1.000000
  0.000000  0.121141 -0.060571      1.000000
 -0.060571 -0.000000  0.121141      1.000000
  0.060571  0.000000 -0.121141      1.000000
  0.121141  0.000000  0.060571      1.000000
 -0.121141 -0.000000 -0.060571      1.000000
 -0.000000 -0.060571  0.121141      1.000000
  0.000000  0.060571 -0.121141      1.000000
  0.121141 -0.060571  0.000000      1.000000
 -0.121141  0.060571  0.000000      1.000000
  0.060571  0.121141  0.000000      1.000000
 -0.060571 -0.121141  0.000000      1.000000
  0.151427  0.060571  0.000000      1.000000
  0.151427 -0.060571  0.000000      1.000000
 -0.000000  0.151427  0.060571      1.000000
  0.000000  0.151427 -0.060571      1.000000
  0.060571 -0.000000  0.151427      1.000000
 -0.060571 -0.000000  0.151427      1.000000
 -0.060571  0.151427  0.000000      1.000000
  0.060571  0.151427  0.000000      1.000000
  0.151427  0.000000  0.060571      1.000000
  0.151427  0.000000 -0.060571      1.000000
 -0.000000  0.060571  0.151427      1.000000
 -0.000000 -0.060571  0.151427      1.000000
  0.090856  0.090856  0.000000      1.000000
 -0.090856 -0.090856  0.000000      1.000000
 -0.000000  0.090856  0.090856      1.000000
  0.000000 -0.090856 -0.090856      1.000000
  0.090856 -0.000000  0.090856      1.000000
 -0.090856  0.000000 -0.090856      1.000000
 -0.090856  0.090856  0.000000      1.000000
  0.090856 -0.090856  0.000000      1.000000
 -0.090856 -0.000000  0.090856      1.000000
  0.090856  0.000000 -0.090856      1.000000
 -0.000000 -0.090856  0.090856      1.000000
  0.000000  0.090856 -0.090856      1.000000
  0.121141  0.090856  0.000000      1.000000
 -0.121141 -0.090856  0.000000      1.000000
 -0.000000  0.121141  0.090856      1.000000
  0.000000 -0.121141 -0.090856      1.000000
  0.090856 -0.000000  0.121141      1.000000
 -0.090856  0.000000 -0.121141      1.000000
 -0.090856  0.121141  0.000000      1.000000
  0.090856 -0.121141  0.000000      1.000000
 -0.121141 -0.000000  0.090856      1.000000
  0.121141  0.000000 -0.090856      1.000000
 -0.000000  0.090856  0.121141      1.000000
  0.000000 -0.090856 -0.121141      1.000000
 -0.000000 -0.121141  0.090856      1.000000
  0.000000  0.121141 -0.090856      1.000000
 -0.090856 -0.000000  0.121141      1.000000
  0.090856  0.000000 -0.121141      1.000000
  0.121141  0.000000  0.090856      1.000000
 -0.121141 -0.000000 -0.090856      1.000000
 -0.000000 -0.090856  0.121141      1.000000
  0.000000  0.090856 -0.121141      1.000000
  0.121141 -0.090856  0.000000      1.000000
 -0.121141  0.090856  0.000000      1.000000
  0.090856  0.121141  0.000000      1.000000
 -0.090856 -0.121141  0.000000      1.000000
  0.151427  0.090856  0.000000      1.000000
  0.151427 -0.090856  0.000000      1.000000
 -0.000000  0.151427  0.090856      1.000000
  0.000000  0.151427 -0.090856      1.000000
  0.090856 -0.000000  0.151427      1.000000
 -0.090856 -0.000000  0.151427      1.000000
 -0.090856  0.151427  0.000000      1.000000
  0.090856  0.151427  0.000000      1.000000
  0.151427  0.000000  0.090856      1.000000
  0.151427  0.000000 -0.090856      1.000000
 -0.000000  0.090856  0.151427      1.000000
 -0.000000 -0.090856  0.151427      1.000000
  0.121141  0.121141  0.000000      1.000000
 -0.121141 -0.121141  0.000000      1.000000
 -0.000000  0.121141  0.121141      1.000000
  0.000000 -0.121141 -0.121141      1.000000
  0.121141  0.000000  0.121141      1.000000
 -0.121141 -0.000000 -0.121141      1.000000
 -0.121141  0.121141  0.000000      1.000000
  0.121141 -0.121141  0.000000      1.000000
 -0.121141 -0.000000  0.121141      1.000000
  0.121141  0.000000 -0.121141      1.000000
 -0.000000 -0.121141  0.121141      1.000000
  0.000000  0.121141 -0.121141      1.000000
  0.151427  0.121141  0.000000      1.000000
  0.151427 -0.121141  0.000000      1.000000
 -0.000000  0.151427  0.121141      1.000000
  0.000000  0.151427 -0.121141      1.000000
  0.121141 -0.000000  0.151427      1.000000
 -0.121141 -0.000000  0.151427      1.000000
 -0.121141  0.151427  0.000000      1.000000
  0.121141  0.151427  0.000000      1.000000
  0.151427  0.000000  0.121141      1.000000
  0.151427  0.000000 -0.121141      1.000000
 -0.000000  0.121141  0.151427      1.000000
 -0.000000 -0.121141  0.151427      1.000000
  0.151427  0.151427  0.000000      1.000000
 -0.000000  0.151427  0.151427      1.000000
  0.151427 -0.000000  0.151427      1.000000
  0.030285  0.030285  0.030285      1.000000
 -0.030285 -0.030285 -0.030285      1.000000
 -0.030285  0.030285  0.030285      1.000000
  0.030285 -0.030285 -0.030285      1.000000
 -0.030285 -0.030285  0.030285      1.000000
  0.030285  0.030285 -0.030285      1.000000
  0.030285 -0.030285  0.030285      1.000000
 -0.030285  0.030285 -0.030285      1.000000
  0.060571  0.030285  0.030285      1.000000
 -0.060571 -0.030285 -0.030285      1.000000
  0.030285  0.060571  0.030285      1.000000
 -0.030285 -0.060571 -0.030285      1.000000
  0.030285  0.030285  0.060571      1.000000
 -0.030285 -0.030285 -0.060571      1.000000
 -0.030285  0.060571  0.030285      1.000000
  0.030285 -0.060571 -0.030285      1.000000
 -0.060571  0.030285  0.030285      1.000000
  0.060571 -0.030285 -0.030285      1.000000
 -0.030285  0.030285  0.060571      1.000000
  0.030285 -0.030285 -0.060571      1.000000
 -0.060571 -0.030285  0.030285      1.000000
  0.060571  0.030285 -0.030285      1.000000
 -0.030285 -0.060571  0.030285      1.000000
  0.030285  0.060571 -0.030285      1.000000
 -0.030285 -0.030285  0.060571      1.000000
  0.030285  0.030285 -0.060571      1.000000
  0.030285 -0.060571  0.030285      1.000000
 -0.030285  0.060571 -0.030285      1.000000
  0.060571 -0.030285  0.030285      1.000000
 -0.060571  0.030285 -0.030285      1.000000
  0.030285 -0.030285  0.060571      1.000000
 -0.030285  0.030285 -0.060571      1.000000
  0.090856  0.030285  0.030285      1.000000
 -0.090856 -0.030285 -0.030285      1.000000
  0.030285  0.090856  0.030285      1.000000
 -0.030285 -0.090856 -0.030285      1.000000
  0.030285  0.030285  0.090856      1.000000
 -0.030285 -0.030285 -0.090856      1.000000
 -0.030285  0.090856  0.030285      1.000000
  0.030285 -0.090856 -0.030285      1.000000
 -0.090856  0.030285  0.030285      1.000000
  0.090856 -0.030285 -0.030285      1.000000
 -0.030285  0.030285  0.090856      1.000000
  0.030285 -0.030285 -0.090856      1.000000
 -0.090856 -0.030285  0.030285      1.000000
  0.090856  0.030285 -0.030285      1.000000
 -0.030285 -0.090856  0.030285      1.000000
  0.030285  0.090856 -0.030285      1.000000
 -0.030285 -0.030285  0.090856      1.000000
  0.030285  0.030285 -0.090856      1.000000
  0.030285 -0.090856  0.030285      1.000000
 -0.030285  0.090856 -0.030285      1.000000
  0.090856 -0.030285  0.030285      1.000000
 -0.090856  0.030285 -0.030285      1.000000
  0.030285 -0.030285  0.090856      1.000000
 -0.030285  0.030285 -0.090856      1.000000
  0.121141  0.030285  0.030285      1.000000
 -0.121141 -0.030285 -0.030285      1.000000
  0.030285  0.121141  0.030285      1.000000
 -0.030285 -0.121141 -0.030285      1.000000
  0.030285  0.030285  0.121141      1.000000
 -0.030285 -0.030285 -0.121141      1.000000
 -0.030285  0.121141  0.030285      1.000000
  0.030285 -0.121141 -0.030285      1.000000
 -0.121141  0.030285  0.030285      1.000000
  0.121141 -0.030285 -0.030285      1.000000
 -0.030285  0.030285  0.121141      1.000000
  0.030285 -0.030285 -0.121141      1.000000
 -0.121141 -0.030285  0.030285      1.000000
  0.121141  0.030285 -0.030285      1.000000
 -0.030285 -0.121141  0.030285      1.000000
  0.030285  0.121141 -0.030285      1.000000
 -0.030285 -0.030285  0.121141      1.000000
  0.030285  0.030285 -0.121141      1.000000
  0.030285 -0.121141  0.030285      1.000000
 -0.030285  0.121141 -0.030285      1.000000
  0.121141 -0.030285  0.030285      1.000000
 -0.121141  0.030285 -0.030285      1.000000
  0.030285 -0.030285  0.121141      1.000000
 -0.030285  0.030285 -0.121141      1.000000
  0.151427  0.030285  0.030285      1.000000
  0.151427 -0.030285 -0.030285      1.000000
  0.030285  0.151427  0.030285      1.000000
 -0.030285  0.151427 -0.030285      1.000000
  0.030285  0.030285  0.151427      1.000000
 -0.030285 -0.030285  0.151427      1.000000
 -0.030285  0.151427  0.030285      1.000000
  0.030285  0.151427 -0.030285      1.000000
 -0.030285  0.030285  0.151427      1.000000
  0.030285 -0.030285  0.151427      1.000000
  0.151427 -0.030285  0.030285      1.000000
  0.151427  0.030285 -0.030285      1.000000
  0.060571  0.060571  0.030285      1.000000
 -0.060571 -0.060571 -0.030285      1.000000
  0.030285  0.060571  0.060571      1.000000
 -0.030285 -0.060571 -0.060571      1.000000
  0.060571  0.030285  0.060571      1.000000
 -0.060571 -0.030285 -0.060571      1.000000
 -0.060571  0.060571  0.030285      1.000000
  0.060571 -0.060571 -0.030285      1.000000
 -0.060571  0.030285  0.060571      1.000000
  0.060571 -0.030285 -0.060571      1.000000
 -0.030285  0.060571  0.060571      1.000000
  0.030285 -0.060571 -0.060571      1.000000
 -0.060571 -0.060571  0.030285      1.000000
  0.060571  0.060571 -0.030285      1.000000
 -0.030285 -0.060571  0.060571      1.000000
  0.030285  0.060571 -0.060571      1.000000
 -0.060571 -0.030285  0.060571      1.000000
  0.060571  0.030285 -0.060571      1.000000
  0.060571 -0.060571  0.030285      1.000000
 -0.060571  0.060571 -0.030285      1.000000
  0.060571 -0.030285  0.060571      1.000000
 -0.060571  0.030285 -0.060571      1.000000
  0.030285 -0.060571  0.060571      1.000000
 -0.030285  0.060571 -0.060571      1.000000
  0.090856  0.060571  0.030285      1.000000
 -0.090856 -0.060571 -0.030285      1.000000
  0.030285  0.090856  0.060571      1.000000
 -0.030285 -0.090856 -0.060571      1.000000
  0.060571  0.030285  0.090856      1.000000
 -0.060571 -0.030285 -0.090856      1.000000
 -0.060571  0.090856  0.030285      1.000000
  0.060571 -0.090856 -0.030285      1.000000
 -0.090856  0.030285  0.060571      1.000000
  0.090856 -0.030285 -0.060571      1.000000
 -0.030285  0.060571  0.090856      1.000000
  0.030285 -0.060571 -0.090856      1.000000
 -0.090856 -0.060571  0.030285      1.000000
  0.090856  0.060571 -0.030285      1.000000
 -0.030285 -0.090856  0.060571      1.000000
  0.030285  0.090856 -0.060571      1.000000
 -0.060571 -0.030285  0.090856      1.000000
  0.060571  0.030285 -0.090856      1.000000
  0.060571 -0.090856  0.030285      1.000000
 -0.060571  0.090856 -0.030285      1.000000
  0.090856 -0.030285  0.060571      1.000000
 -0.090856  0.030285 -0.060571      1.000000
  0.030285 -0.060571  0.090856      1.000000
 -0.030285  0.060571 -0.090856      1.000000
  0.030285 -0.090856 -0.060571      1.000000
 -0.030285  0.090856  0.060571      1.000000
  0.060571 -0.030285 -0.090856      1.000000
 -0.060571  0.030285  0.090856      1.000000
  0.090856 -0.060571 -0.030285      1.000000
 -0.090856  0.060571  0.030285      1.000000
  0.030285  0.060571 -0.090856      1.000000
 -0.030285 -0.060571  0.090856      1.000000
  0.060571  0.090856 -0.030285      1.000000
 -0.060571 -0.090856  0.030285      1.000000
  0.090856  0.030285 -0.060571      1.000000
 -0.090856 -0.030285  0.060571      1.000000
 -0.060571  0.030285 -0.090856      1.000000
  0.060571 -0.030285  0.090856      1.000000
 -0.090856  0.060571 -0.030285      1.000000
  0.090856 -0.060571  0.030285      1.000000
 -0.030285  0.090856 -0.060571      1.000000
  0.030285 -0.090856  0.060571      1.000000
 -0.090856 -0.030285 -0.060571      1.000000
  0.090856  0.030285  0.060571      1.000000
 -0.060571 -0.090856 -0.030285      1.000000
  0.060571  0.090856  0.030285      1.000000
 -0.030285 -0.060571 -0.090856      1.000000
  0.030285  0.060571  0.090856      1.000000
  0.121141  0.060571  0.030285      1.000000
 -0.121141 -0.060571 -0.030285      1.000000
  0.030285  0.121141  0.060571      1.000000
 -0.030285 -0.121141 -0.060571      1.000000
  0.060571  0.030285  0.121141      1.000000
 -0.060571 -0.030285 -0.121141      1.000000
 -0.060571  0.121141  0.030285      1.000000
  0.060571 -0.121141 -0.030285      1.000000
 -0.121141  0.030285  0.060571      1.000000
  0.121141 -0.030285 -0.060571      1.000000
 -0.030285  0.060571  0.121141      1.000000
  0.030285 -0.060571 -0.121141      1.000000
 -0.121141 -0.060571  0.030285      1.000000
  0.121141  0.060571 -0.030285      1.000000
 -0.030285 -0.121141  0.060571      1.000000
  0.030285  0.121141 -0.060571      1.000000
 -0.060571 -0.030285  0.121141      1.000000
  0.060571  0.030285 -0.121141      1.000000
  0.060571 -0.121141  0.030285      1.000000
 -0.060571  0.121141 -0.030285      1.000000
  0.121141 -0.030285  0.060571      1.000000
 -0.121141  0.030285 -0.060571      1.000000
  0.030285 -0.060571  0.121141      1.000000
 -0.030285  0.060571 -0.121141      1.000000
  0.030285 -0.121141 -0.060571      1.000000
 -0.030285  0.121141  0.060571      1.000000
  0.060571 -0.030285 -0.121141      1.000000
 -0.060571  0.030285  0.121141      1.000000
  0.121141 -0.060571 -0.030285      1.000000
 -0.121141  0.060571  0.030285      1.000000
  0.030285  0.060571 -0.121141      1.000000
 -0.030285 -0.060571  0.121141      1.000000
  0.060571  0.121141 -0.030285      1.000000
 -0.060571 -0.121141  0.030285      1.000000
  0.121141  0.030285 -0.060571      1.000000
 -0.121141 -0.030285  0.060571      1.000000
 -0.060571  0.030285 -0.121141      1.000000
  0.060571 -0.030285  0.121141      1.000000
 -0.121141  0.060571 -0.030285      1.000000
  0.121141 -0.060571  0.030285      1.000000
 -0.030285  0.121141 -0.060571      1.000000
  0.030285 -0.121141  0.060571      1.000000
 -0.121141 -0.030285 -0.060571      1.000000
  0.121141  0.030285  0.060571      1.000000
 -0.060571 -0.121141 -0.030285      1.000000
  0.060571  0.121141  0.030285      1.000000
 -0.030285 -0.060571 -0.121141      1.000000
  0.030285  0.060571  0.121141      1.000000
  0.151427  0.060571  0.030285      1.000000
  0.151427 -0.060571 -0.030285      1.000000
  0.030285  0.151427  0.060571      1.000000
 -0.030285  0.151427 -0.060571      1.000000
  0.060571  0.030285  0.151427      1.000000
 -0.060571 -0.030285  0.151427      1.000000
 -0.060571  0.151427  0.030285      1.000000
  0.060571  0.151427 -0.030285      1.000000
  0.151427  0.030285  0.060571      1.000000
  0.151427 -0.030285 -0.060571      1.000000
 -0.030285  0.060571  0.151427      1.000000
  0.030285 -0.060571  0.151427      1.000000
  0.151427 -0.060571  0.030285      1.000000
  0.151427  0.060571 -0.030285      1.000000
 -0.030285  0.151427  0.060571      1.000000
  0.030285  0.151427 -0.060571      1.000000
  0.060571  0.151427  0.030285      1.000000
 -0.060571  0.151427 -0.030285      1.000000
  0.151427 -0.030285  0.060571      1.000000
  0.151427  0.030285 -0.060571      1.000000
  0.060571 -0.030285  0.151427      1.000000
 -0.060571  0.030285  0.151427      1.000000
  0.030285  0.060571  0.151427      1.000000
 -0.030285 -0.060571  0.151427      1.000000
  0.090856  0.090856  0.030285      1.000000
 -0.090856 -0.090856 -0.030285      1.000000
  0.030285  0.090856  0.090856      1.000000
 -0.030285 -0.090856 -0.090856      1.000000
  0.090856  0.030285  0.090856      1.000000
 -0.090856 -0.030285 -0.090856      1.000000
 -0.090856  0.090856  0.030285      1.000000
  0.090856 -0.090856 -0.030285      1.000000
 -0.090856  0.030285  0.090856      1.000000
  0.090856 -0.030285 -0.090856      1.000000
 -0.030285  0.090856  0.090856      1.000000
  0.030285 -0.090856 -0.090856      1.000000
 -0.090856 -0.090856  0.030285      1.000000
  0.090856  0.090856 -0.030285      1.000000
 -0.030285 -0.090856  0.090856      1.000000
  0.030285  0.090856 -0.090856      1.000000
 -0.090856 -0.030285  0.090856      1.000000
  0.090856  0.030285 -0.090856      1.000000
  0.090856 -0.090856  0.030285      1.000000
 -0.090856  0.090856 -0.030285      1.000000
  0.090856 -0.030285  0.090856      1.000000
 -0.090856  0.030285 -0.090856      1.000000
  0.030285 -0.090856  0.090856      1.000000
 -0.030285  0.090856 -0.090856      1.000000
  0.121141  0.090856  0.030285      1.000000
 -0.121141 -0.090856 -0.030285      1.000000
  0.030285  0.121141  0.090856      1.000000
 -0.030285 -0.121141 -0.090856      1.000000
  0.090856  0.030285  0.121141      1.000000
 -0.090856 -0.030285 -0.121141      1.000000
 -0.090856  0.121141  0.030285      1.000000
  0.090856 -0.121141 -0.030285      1.000000
 -0.121141  0.030285  0.090856      1.000000
  0.121141 -0.030285 -0.090856      1.000000
 -0.030285  0.090856  0.121141      1.000000
  0.030285 -0.090856 -0.121141      1.000000
 -0.121141 -0.090856  0.030285      1.000000
  0.121141  0.090856 -0.030285      1.000000
 -0.030285 -0.121141  0.090856      1.000000
  0.030285  0.121141 -0.090856      1.000000
 -0.090856 -0.030285  0.121141      1.000000
  0.090856  0.030285 -0.121141      1.000000
  0.090856 -0.121141  0.030285      1.000000
 -0.090856  0.121141 -0.030285      1.000000
  0.121141 -0.030285  0.090856      1.000000
 -0.121141  0.030285 -0.090856      1.000000
  0.030285 -0.090856  0.121141      1.000000
 -0.030285  0.090856 -0.121141      1.000000
  0.030285 -0.121141 -0.090856      1.000000
 -0.030285  0.121141  0.090856      1.000000
  0.090856 -0.030285 -0.121141      1.000000
 -0.090856  0.030285  0.121141      1.000000
  0.121141 -0.090856 -0.030285      1.000000
 -0.121141  0.090856  0.030285      1.000000
  0.030285  0.090856 -0.121141      1.000000
 -0.030285 -0.090856  0.121141      1.000000
  0.090856  0.121141 -0.030285      1.000000
 -0.090856 -0.121141  0.030285      1.000000
  0.121141  0.030285 -0.090856      1.000000
 -0.121141 -0.030285  0.090856      1.000000
 -0.090856  0.030285 -0.121141      1.000000
  0.090856 -0.030285  0.121141      1.000000
 -0.121141  0.090856 -0.030285      1.000000
  0.121141 -0.090856  0.030285      1.000000
 -0.030285  0.121141 -0.090856      1.000000
  0.030285 -0.121141  0.090856      1.000000
 -0.121141 -0.030285 -0.090856      1.000000
  0.121141  0.030285  0.090856      1.000000
 -0.090856 -0.121141 -0.030285      1.000000
  0.090856  0.121141  0.030285      1.000000
 -0.030285 -0.090856 -0.121141      1.000000
  0.030285  0.090856  0.121141      1.000000
  0.151427  0.090856  0.030285      1.000000
  0.151427 -0.090856 -0.030285      1.000000
  0.030285  0.151427  0.090856      1.000000
 -0.030285  0.151427 -0.090856      1.000000
  0.090856  0.030285  0.151427      1.000000
 -0.090856 -0.030285  0.151427      1.000000
 -0.090856  0.151427  0.030285      1.000000
  0.090856  0.151427 -0.030285      1.000000
  0.151427  0.030285  0.090856      1.000000
  0.151427 -0.030285 -0.090856      1.000000
 -0.030285  0.090856  0.151427      1.000000
  0.030285 -0.090856  0.151427      1.000000
  0.151427 -0.090856  0.030285      1.000000
  0.151427  0.090856 -0.030285      1.000000
 -0.030285  0.151427  0.090856      1.000000
  0.030285  0.151427 -0.090856      1.000000
  0.090856  0.151427  0.030285      1.000000
 -0.090856  0.151427 -0.030285      1.000000
  0.151427 -0.030285  0.090856      1.000000
  0.151427  0.030285 -0.090856      1.000000
  0.090856 -0.030285  0.151427      1.000000
 -0.090856  0.030285  0.151427      1.000000
  0.030285  0.090856  0.151427      1.000000
 -0.030285 -0.090856  0.151427      1.000000
  0.121141  0.121141  0.030285      1.000000
 -0.121141 -0.121141 -0.030285      1.000000
  0.030285  0.121141  0.121141      1.000000
 -0.030285 -0.121141 -0.121141      1.000000
  0.121141  0.030285  0.121141      1.000000
 -0.121141 -0.030285 -0.121141      1.000000
 -0.121141  0.121141  0.030285      1.000000
  0.121141 -0.121141 -0.030285      1.000000
 -0.121141  0.030285  0.121141      1.000000
  0.121141 -0.030285 -0.121141      1.000000
 -0.030285  0.121141  0.121141      1.000000
  0.030285 -0.121141 -0.121141      1.000000
 -0.121141 -0.121141  0.030285      1.000000
  0.121141  0.121141 -0.030285      1.000000
 -0.030285 -0.121141  0.121141      1.000000
  0.030285  0.121141 -0.121141      1.000000
 -0.121141 -0.030285  0.121141      1.000000
  0.121141  0.030285 -0.121141      1.000000
  0.121141 -0.121141  0.030285      1.000000
 -0.121141  0.121141 -0.030285      1.000000
  0.121141 -0.030285  0.121141      1.000000
 -0.121141  0.030285 -0.121141      1.000000
  0.030285 -0.121141  0.121141      1.000000
 -0.030285  0.121141 -0.121141      1.000000
  0.151427  0.121141  0.030285      1.000000
  0.151427 -0.121141 -0.030285      1.000000
  0.030285  0.151427  0.121141      1.000000
 -0.030285  0.151427 -0.121141      1.000000
  0.121141  0.030285  0.151427      1.000000
 -0.121141 -0.030285  0.151427      1.000000
 -0.121141  0.151427  0.030285      1.000000
  0.121141  0.151427 -0.030285      1.000000
  0.151427  0.030285  0.121141      1.000000
  0.151427 -0.030285 -0.121141      1.000000
 -0.030285  0.121141  0.151427      1.000000
  0.030285 -0.121141  0.151427      1.000000
  0.151427 -0.121141  0.030285      1.000000
  0.151427  0.121141 -0.030285      1.000000
 -0.030285  0.151427  0.121141      1.000000
[...]
 -0.000  -0.000   0.000   0.000   0.000  -0.000   0.000   0.000   0.000  -0.000   0.000  -0.000  -0.000  -0.000   0.000   0.000
 -0.000   0.000  -0.000  -0.000  -0.000  -0.000   0.000  -0.000  -0.000  -0.000  -0.000  -0.000  -0.000   0.000   0.000   0.000
  0.000  -0.000   0.000   0.000   0.000   0.000   0.000   0.000   0.000   0.000  -0.000  -0.000   0.000  -0.000  -0.000   0.000
  0.000   0.000  -0.000   0.000  -0.000  -0.000   0.000  -0.000   0.000   0.000  -0.000   0.000   0.000  -0.000  -0.000   0.000
  0.000  -0.000   0.000  -0.000  -0.000   0.000   0.000  -0.000  -0.000  -0.000   0.000   0.000   0.000   0.000   0.000  -0.000
  0.000   0.000  -0.000  -0.000  -0.000   0.000  -0.000  -0.000  -0.000   0.000   0.000   0.000   0.000   0.000  -0.000  -0.000
  0.000  -0.000   0.000   0.000   0.000   0.000   0.000   0.000   0.000   0.000   0.000   0.000   0.000  -0.000  -0.000  -0.000
  0.000  -0.000  -0.000   0.000   0.000  -0.000   0.000   0.000  -0.000  -0.000  -0.000  -0.000  -0.000   0.000   0.000   0.000
 -0.000  -0.000   0.000   0.000  -0.000   0.000   0.000  -0.000   0.000   0.000  -0.000  -0.000   0.000  -0.000  -0.000   0.000
  0.000  -0.000  -0.000   0.000  -0.000  -0.000  -0.000  -0.000  -0.000  -0.000   0.000  -0.000  -0.000   0.000   0.000  -0.000
  0.000  -0.000   0.000  -0.000  -0.000   0.000   0.000  -0.000   0.000  -0.000   0.000   0.000  -0.000  -0.000   0.000  -0.000
  0.000   0.000  -0.000  -0.000   0.000  -0.000  -0.000  -0.000   0.000  -0.000  -0.000  -0.000   0.000   0.000   0.000   0.000
 -0.000  -0.000   0.000   0.000   0.000   0.000   0.000  -0.000   0.000   0.000   0.000  -0.000  -0.000  -0.000  -0.000  -0.000
 -0.000   0.000  -0.000   0.000   0.000  -0.000   0.000   0.000   0.000   0.000   0.000   0.000   0.000  -0.000  -0.000   0.000
 -0.000   0.000   0.000  -0.000  -0.000   0.000  -0.000  -0.000  -0.000   0.000   0.000  -0.000   0.000   0.000  -0.000  -0.000
  0.000   0.000  -0.000  -0.000   0.000   0.000  -0.000   0.000  -0.000  -0.000   0.000  -0.000  -0.000   0.000   0.000  -0.000
 -0.000   0.000   0.000  -0.000   0.000   0.000   0.000   0.000   0.000   0.000  -0.000  -0.000   0.000  -0.000  -0.000   0.000
 -0.000   0.000  -0.000   0.000   0.000  -0.000  -0.000   0.000  -0.000  -0.000   0.000   0.000   0.000   0.000  -0.000  -0.000
 -0.000  -0.000   0.000   0.000  -0.000   0.000  -0.000   0.000  -0.000   0.000   0.000   0.000  -0.000  -0.000  -0.000  -0.000
  0.000  -0.000  -0.000  -0.000  -0.000  -0.000  -0.000   0.000  -0.000  -0.000  -0.000   0.000   0.000  -0.000   0.000   0.000
  0.000   0.000   0.000  -0.000  -0.000   0.000  -0.000  -0.000  -0.000  -0.000  -0.000  -0.000  -0.000   0.000   0.000  -0.000
 total augmentation occupancy for first ion, spin component:           3
 -0.000  -0.000  -0.000   0.000  -0.000  -0.000   0.000   0.000   0.000  -0.000  -0.000   0.000   0.000  -0.000   0.000   0.000
 -0.000   0.000  -0.000   0.000  -0.000   0.000  -0.000   0.000  -0.000  -0.000  -0.000   0.000  -0.000   0.000   0.000   0.000
 -0.000  -0.000   0.000  -0.000   0.000   0.000  -0.000   0.000  -0.000  -0.000  -0.000   0.000  -0.000   0.000   0.000   0.000
  0.000   0.000  -0.000   0.000  -0.000  -0.000   0.000  -0.000   0.000  -0.000  -0.000   0.000   0.000  -0.000   0.000   0.000
 -0.000  -0.000   0.000  -0.000   0.000  -0.000   0.000   0.000  -0.000   0.000   0.000   0.000  -0.000   0.000  -0.000  -0.000
 -0.000   0.000   0.000  -0.000  -0.000   0.000  -0.000   0.000  -0.000   0.000  -0.000  -0.000   0.000   0.000  -0.000   0.000
  0.000  -0.000  -0.000   0.000   0.000  -0.000   0.000  -0.000  -0.000  -0.000   0.000   0.000   0.000   0.000   0.000   0.000
  0.000   0.000   0.000  -0.000   0.000   0.000  -0.000   0.000   0.000   0.000  -0.000   0.000  -0.000  -0.000  -0.000   0.000
  0.000  -0.000  -0.000   0.000  -0.000  -0.000  -0.000   0.000   0.000   0.000  -0.000   0.000  -0.000  -0.000  -0.000   0.000
 -0.000  -0.000  -0.000  -0.000   0.000   0.000  -0.000   0.000   0.000   0.000  -0.000   0.000  -0.000  -0.000  -0.000   0.000
 -0.000  -0.000  -0.000  -0.000   0.000  -0.000   0.000  -0.000  -0.000  -0.000  -0.000   0.000   0.000  -0.000   0.000   0.000
  0.000   0.000   0.000   0.000   0.000  -0.000   0.000   0.000   0.000   0.000   0.000   0.000   0.000  -0.000  -0.000  -0.000
  0.000  -0.000  -0.000   0.000  -0.000   0.000   0.000  -0.000  -0.000  -0.000   0.000   0.000  -0.000   0.000   0.000  -0.000
 -0.000   0.000   0.000  -0.000   0.000   0.000   0.000  -0.000  -0.000  -0.000  -0.000  -0.000   0.000   0.000   0.000   0.000
  0.000   0.000   0.000   0.000  -0.000  -0.000   0.000  -0.000  -0.000  -0.000   0.000  -0.000   0.000   0.000   0.000  -0.000
  0.000   0.000   0.000   0.000  -0.000   0.000   0.000   0.000   0.000   0.000   0.000  -0.000  -0.000   0.000  -0.000  -0.000
 -0.000  -0.000  -0.000  -0.000  -0.000   0.000  -0.000  -0.000  -0.000  -0.000  -0.000  -0.000  -0.000   0.000   0.000   0.000
 -0.000   0.000   0.000  -0.000   0.000  -0.000  -0.000   0.000   0.000   0.000  -0.000  -0.000   0.000  -0.000  -0.000   0.000
 -0.000   0.000  -0.000   0.000   0.000  -0.000   0.000  -0.000   0.000   0.000   0.000   0.000  -0.000  -0.000  -0.000  -0.000
  0.000  -0.000   0.000  -0.000   0.000  -0.000  -0.000   0.000   0.000   0.000  -0.000  -0.000  -0.000  -0.000  -0.000   0.000
 -0.000   0.000  -0.000   0.000  -0.000  -0.000   0.000  -0.000  -0.000   0.000   0.000  -0.000  -0.000   0.000  -0.000  -0.000
  0.000   0.000   0.000   0.000   0.000  -0.000   0.000   0.000   0.000  -0.000   0.000   0.000   0.000  -0.000   0.000  -0.000
  0.000   0.000  -0.000   0.000  -0.000  -0.000   0.000  -0.000  -0.000   0.000   0.000   0.000  -0.000   0.000  -0.000  -0.000
  0.000   0.000   0.000   0.000   0.000   0.000   0.000   0.000  -0.000  -0.000  -0.000   0.000  -0.000   0.000   0.000   0.000
  0.000  -0.000  -0.000   0.000  -0.000  -0.000   0.000  -0.000   0.000   0.000  -0.000  -0.000  -0.000  -0.000  -0.000   0.000
  0.000   0.000   0.000  -0.000   0.000   0.000  -0.000   0.000  -0.000  -0.000  -0.000  -0.000   0.000   0.000   0.000   0.000
 -0.000   0.000  -0.000   0.000  -0.000   0.000   0.000  -0.000  -0.000  -0.000   0.000   0.000   0.000   0.000   0.000  -0.000
  0.000   0.000   0.000  -0.000   0.000   0.000  -0.000   0.000   0.000  -0.000  -0.000  -0.000   0.000  -0.000   0.000   0.000
 -0.000  -0.000  -0.000  -0.000  -0.000   0.000  -0.000  -0.000  -0.000   0.000  -0.000   0.000  -0.000   0.000  -0.000   0.000
 -0.000  -0.000   0.000  -0.000   0.000   0.000   0.000   0.000   0.000  -0.000  -0.000  -0.000   0.000  -0.000   0.000   0.000
 -0.000  -0.000  -0.000  -0.000  -0.000  -0.000  -0.000  -0.000   0.000   0.000   0.000  -0.000   0.000  -0.000  -0.000   0.000
 -0.000   0.000   0.000  -0.000   0.000   0.000  -0.000  -0.000  -0.000  -0.000  -0.000   0.000   0.000   0.000   0.000   0.000
 total augmentation occupancy for first ion, spin component:           4
  0.000   0.000   0.000   0.000  -0.000  -0.000   0.000  -0.000  -0.000   0.000   0.000  -0.000   0.000   0.000  -0.000  -0.000
  0.000  -0.000   0.000  -0.000  -0.000   0.000   0.000   0.000  -0.000  -0.000  -0.000  -0.000  -0.000   0.000  -0.000   0.000
  0.000   0.000   0.000  -0.000  -0.000  -0.000   0.000  -0.000  -0.000   0.000  -0.000   0.000   0.000   0.000   0.000   0.000
  0.000  -0.000  -0.000   0.000  -0.000   0.000   0.000   0.000   0.000  -0.000   0.000  -0.000  -0.000  -0.000   0.000  -0.000
 -0.000  -0.000  -0.000  -0.000   0.000  -0.000  -0.000   0.000  -0.000   0.000   0.000  -0.000  -0.000   0.000  -0.000  -0.000
 -0.000   0.000  -0.000   0.000  -0.000   0.000  -0.000   0.000   0.000   0.000   0.000   0.000   0.000  -0.000  -0.000  -0.000
  0.000   0.000   0.000   0.000  -0.000  -0.000  -0.000   0.000   0.000   0.000  -0.000   0.000   0.000  -0.000  -0.000   0.000
 -0.000   0.000  -0.000   0.000   0.000   0.000   0.000  -0.000  -0.000   0.000   0.000   0.000  -0.000   0.000  -0.000  -0.000
 -0.000  -0.000  -0.000   0.000  -0.000   0.000   0.000  -0.000  -0.000  -0.000   0.000   0.000  -0.000   0.000   0.000  -0.000
  0.000  -0.000   0.000  -0.000   0.000   0.000   0.000   0.000  -0.000  -0.000  -0.000  -0.000  -0.000   0.000   0.000   0.000
  0.000  -0.000  -0.000   0.000   0.000   0.000  -0.000   0.000   0.000  -0.000   0.000   0.000   0.000  -0.000   0.000  -0.000
 -0.000  -0.000   0.000  -0.000  -0.000   0.000   0.000   0.000   0.000  -0.000   0.000  -0.000   0.000  -0.000   0.000  -0.000
  0.000  -0.000   0.000  -0.000  -0.000   0.000   0.000  -0.000  -0.000  -0.000   0.000   0.000  -0.000   0.000   0.000  -0.000
  0.000   0.000   0.000  -0.000   0.000  -0.000  -0.000   0.000   0.000   0.000  -0.000  -0.000   0.000  -0.000  -0.000   0.000
 -0.000  -0.000   0.000   0.000  -0.000  -0.000  -0.000  -0.000   0.000   0.000   0.000   0.000   0.000  -0.000  -0.000  -0.000
 -0.000   0.000   0.000  -0.000  -0.000  -0.000   0.000  -0.000  -0.000   0.000  -0.000  -0.000  -0.000   0.000  -0.000   0.000
  0.000   0.000  -0.000   0.000   0.000   0.000   0.000  -0.000  -0.000   0.000  -0.000   0.000  -0.000   0.000  -0.000   0.000
 -0.000   0.000  -0.000   0.000   0.000  -0.000  -0.000   0.000   0.000  -0.000  -0.000  -0.000  -0.000  -0.000  -0.000   0.000
 -0.000   0.000   0.000  -0.000   0.000   0.000  -0.000  -0.000   0.000   0.000  -0.000   0.000  -0.000  -0.000  -0.000   0.000
 -0.000   0.000  -0.000   0.000   0.000  -0.000  -0.000   0.000   0.000   0.000   0.000  -0.000  -0.000  -0.000  -0.000  -0.000
 -0.000   0.000   0.000   0.000  -0.000   0.000   0.000   0.000   0.000  -0.000   0.000  -0.000  -0.000  -0.000   0.000  -0.000
 -0.000  -0.000   0.000   0.000   0.000   0.000   0.000  -0.000  -0.000  -0.000  -0.000   0.000   0.000  -0.000   0.000   0.000
 -0.000  -0.000  -0.000   0.000  -0.000  -0.000   0.000  -0.000  -0.000  -0.000   0.000   0.000  -0.000   0.000   0.000  -0.000
  0.000   0.000   0.000  -0.000   0.000   0.000  -0.000  -0.000  -0.000  -0.000   0.000   0.000   0.000   0.000   0.000  -0.000
 -0.000   0.000   0.000  -0.000   0.000   0.000  -0.000   0.000  -0.000   0.000  -0.000  -0.000   0.000   0.000  -0.000   0.000
  0.000   0.000  -0.000   0.000  -0.000  -0.000   0.000   0.000  -0.000  -0.000   0.000  -0.000   0.000   0.000   0.000  -0.000
  0.000  -0.000   0.000  -0.000  -0.000   0.000   0.000  -0.000  -0.000  -0.000  -0.000   0.000   0.000   0.000   0.000   0.000
  0.000   0.000  -0.000  -0.000   0.000  -0.000  -0.000  -0.000  -0.000   0.000  -0.000   0.000   0.000  -0.000  -0.000   0.000
  0.000   0.000  -0.000  -0.000  -0.000  -0.000  -0.000   0.000  -0.000   0.000   0.000  -0.000   0.000   0.000   0.000  -0.000
  0.000   0.000   0.000  -0.000   0.000  -0.000  -0.000   0.000   0.000   0.000  -0.000  -0.000   0.000  -0.000  -0.000   0.000
 -0.000  -0.000  -0.000   0.000  -0.000   0.000   0.000  -0.000   0.000   0.000  -0.000  -0.000  -0.000  -0.000  -0.000   0.000
  0.000  -0.000  -0.000   0.000  -0.000  -0.000   0.000  -0.000  -0.000  -0.000   0.000   0.000  -0.000   0.000   0.000  -0.000


------------------------ aborting loop because EDIFF is reached ----------------------------------------


    CHARGE:  cpu time      0.1279: real time      0.1286
    FORLOC:  cpu time      0.0005: real time      0.0005
    FORNL :  cpu time      0.2598: real time      0.2613
    STRESS:  cpu time      2.2407: real time      2.2602
    FORCOR:  cpu time      0.0182: real time      0.0183
    FORHAR:  cpu time      0.0023: real time      0.0023
    MIXING:  cpu time      0.0053: real time      0.0053
    OFIELD:  cpu time      0.0000: real time      0.0000

  FORCE on cell =-STRESS in cart. coord.  units (eV):
  Direction    XX          YY          ZZ          XY          YZ          ZX
  --------------------------------------------------------------------------------------
  Alpha Z   301.60153   301.60153   301.60153
  Ewald   -1036.89141 -1036.89141 -1036.89141    -0.00000     0.00000     0.00000
  Hartree    62.82815    62.82816    62.82816     0.00000     0.00001    -0.00000
  E(xc)    -119.42953  -119.42953  -119.42953    -0.00000    -0.00000     0.00000
  Local     117.62936   117.62934   117.62933    -0.00001    -0.00003     0.00001
  n-local   220.37719   220.37717   220.37719     0.00000    -0.00000    -0.00001
  augment   -47.07588   -47.07587   -47.07587     0.00000     0.00001    -0.00000
  Kinetic   508.21850   508.21851   508.21851    -0.00000     0.00001     0.00000
  Fock        0.00000     0.00000     0.00000     0.00000     0.00000     0.00000
  -------------------------------------------------------------------------------------
  Total       7.25792     7.25791     7.25792    -0.00001    -0.00001     0.00000
  in kB     323.01321   323.01267   323.01300    -0.00034    -0.00044     0.00002
  external pressure =      323.01 kB  Pullay stress =        0.00 kB


 VOLUME and BASIS-vectors are now :
 -----------------------------------------------------------------------------
  energy-cutoff  :      500.00
  volume of cell :       36.00
      direct lattice vectors                 reciprocal lattice vectors
     3.301927249  0.000000000  0.000000000     0.302853432  0.000000000  0.000000000
    -0.000000000  3.301927249  0.000000000     0.000000000  0.302853432  0.000000000
     0.000000000  0.000000000  3.301927249    -0.000000000 -0.000000000  0.302853432

  length of vectors
     3.301927249  3.301927249  3.301927249     0.302853432  0.302853432  0.302853432


 FORCES acting on ions
    electron-ion (+dipol)            ewald-force                    non-local-force                 convergence-correction
 -----------------------------------------------------------------------------------------------
   0.172E-04 0.169E-04 0.965E-06   -.477E-14 -.304E-15 -.516E-14   -.657E-05 -.232E-05 -.123E-05   -.115E-04 -.129E-04 -.455E-05
   0.300E-05 0.526E-05 0.310E-04   0.238E-14 0.283E-15 0.558E-14   -.113E-05 -.187E-05 -.972E-05   -.306E-05 -.617E-05 -.199E-04
 -----------------------------------------------------------------------------------------------
   0.202E-04 0.222E-04 0.320E-04   -.239E-14 -.216E-16 0.419E-15   -.770E-05 -.420E-05 -.110E-04   -.146E-04 -.191E-04 -.244E-04
 
 
 POSITION                                       TOTAL-FORCE (eV/Angst)
 -----------------------------------------------------------------------------------
      0.00000      0.00000      0.00000         0.000000      0.000002     -0.000003
      1.65096      1.65096      1.65096        -0.000000     -0.000002      0.000003
 -----------------------------------------------------------------------------------
    total drift:                               -0.000002     -0.000001     -0.000003


--------------------------------------------------------------------------------------------------------



  FREE ENERGIE OF THE ION-ELECTRON SYSTEM (eV)
  ---------------------------------------------------
  free  energy   TOTEN  =       -23.06459710 eV

  energy  without entropy=      -23.06447187  energy(sigma->0) =      -23.06455535
 


--------------------------------------------------------------------------------------------------------


    POTLOK:  cpu time      1.0073: real time      1.0111


--------------------------------------------------------------------------------------------------------




--------------------------------------------------------------------------------------------------------


  
 reached required accuracy - stopping structural energy minimisation
     LOOP+:  cpu time     54.0963: real time     54.6461
    4ORBIT:  cpu time      0.0000: real time      0.0000
 


 orbital moment (x)
 
 # of ion     p       d       f       tot
 ------------------------------------------------
  1         0.000   0.000  -0.000  -0.000
  2        -0.000   0.000   0.000   0.000
 ------------------------------------------------
           -0.000   0.000   0.000   0.000
 


 orbital moment (y)
 
 # of ion     p       d       f       tot
 ------------------------------------------------
  1        -0.000   0.000  -0.000  -0.000
  2        -0.000   0.000   0.000   0.000
 ------------------------------------------------
           -0.000   0.000  -0.000  -0.000
 


 orbital moment (z)
 
 # of ion     p       d       f       tot
 ------------------------------------------------
  1        -0.000  -0.000  -0.000  -0.000
  2         0.000   0.000   0.000   0.000
 ------------------------------------------------
            0.000  -0.000  -0.000  -0.000

 Spin-Orbit-Coupling matrix elements

 Ion:    1  E_soc:     -5.7080082
 l=   1
     0.0000000    -0.8797392    -0.8797391
    -0.8797392     0.0000000    -0.8797392
    -0.8797391    -0.8797392     0.0000000
 l=   2
     0.0000000    -0.0019727     0.0000000    -0.0019727    -0.0154389
    -0.0019727     0.0000000    -0.0115791    -0.0019727    -0.0038597
     0.0000000    -0.0115791     0.0000000    -0.0115791     0.0000000
    -0.0019727    -0.0019727    -0.0115791     0.0000000    -0.0038597
    -0.0154389    -0.0038597     0.0000000    -0.0038597     0.0000000
 l=   3
     0.0000000    -0.0062852     0.0000000     0.0000000     0.0000000    -0.0051033    -0.0332884
    -0.0062852     0.0000000    -0.0104754     0.0000000    -0.0104754    -0.0167606    -0.0062853
     0.0000000    -0.0104754     0.0000000    -0.0206481    -0.0041350    -0.0116720     0.0000000
     0.0000000     0.0000000    -0.0206481     0.0000000    -0.0206480     0.0000000     0.0000000
     0.0000000    -0.0104754    -0.0041350    -0.0206480     0.0000000    -0.0116720     0.0000000
    -0.0051033    -0.0167606    -0.0116720     0.0000000    -0.0116720     0.0000000    -0.0051033
    -0.0332884    -0.0062853     0.0000000     0.0000000     0.0000000    -0.0051033     0.0000000

 Ion:    2  E_soc:     -5.7075435
 l=   1
     0.0000000    -0.8797198    -0.8797200
    -0.8797198     0.0000000    -0.8797199
    -0.8797200    -0.8797199     0.0000000
 l=   2
     0.0000000    -0.0019738     0.0000000    -0.0019738    -0.0154382
    -0.0019738     0.0000000    -0.0115786    -0.0019738    -0.0038595
     0.0000000    -0.0115786     0.0000000    -0.0115786     0.0000000
    -0.0019738    -0.0019738    -0.0115786     0.0000000    -0.0038595
    -0.0154382    -0.0038595     0.0000000    -0.0038595     0.0000000
 l=   3
     0.0000000    -0.0062763     0.0000000     0.0000000     0.0000000    -0.0050965    -0.0332582
    -0.0062763     0.0000000    -0.0104605     0.0000000    -0.0104604    -0.0167368    -0.0062762
     0.0000000    -0.0104605     0.0000000    -0.0206266    -0.0041304    -0.0116656     0.0000000
     0.0000000     0.0000000    -0.0206266     0.0000000    -0.0206266     0.0000000     0.0000000
     0.0000000    -0.0104604    -0.0041304    -0.0206266     0.0000000    -0.0116656     0.0000000
    -0.0050965    -0.0167368    -0.0116656     0.0000000    -0.0116656     0.0000000    -0.0050965
    -0.0332582    -0.0062762     0.0000000     0.0000000     0.0000000    -0.0050965     0.0000000

 total amount of memory used by VASP MPI-rank0   305683. kBytes
=======================================================================

   base      :      30000. kBytes
   nonl-proj :     122895. kBytes
   fftplans  :       1155. kBytes
   grid      :       3981. kBytes
   one-center:        196. kBytes
   wavefun   :     147456. kBytes
 
  
  
 General timing and accounting informations for this job:
 ========================================================
  
                  Total CPU time used (sec):       58.245
                            User time (sec):       57.839
                          System time (sec):        0.406
                         Elapsed time (sec):       59.672
  
                   Maximum memory used (kb):      586664.
                   Average memory used (kb):          N/A
  
                          Minor page faults:        52416
                          Major page faults:            0
                 Voluntary context switches:         1598
