1
Lattice="-0.0702 1.755 1.755 1.755 0.0 1.755 1.755 1.755 0.0" Properties=species:S:1:pos:R:3:forces:R:3 energy=-5.40978447 stress="0.03191816016792548 -0.01202637071958952 -0.01202637071958952 -0.01202637071958952 0.022651547606454752 0.00027702314104320256 -0.01202637071958952 0.00027702314104320256 0.022651547606454752" pbc="T T T"
Ni       0.00000000       0.00000000       0.00000000      -0.00000000      -0.00000000       0.00000000 
1
Lattice="-0.0702 1.755 1.755 1.755 -0.0702 1.755 1.755 1.755 0.0" Properties=species:S:1:pos:R:3:forces:R:3 energy=-5.39794314 stress="0.04721589306566419 -0.020455865835587658 -0.011942441146373767 -0.020455865835587658 0.04721589306566419 -0.011942441146373767 -0.011942441146373767 -0.011942441146373767 0.04162691499436465" pbc="T T T"
Ni       0.00000000       0.00000000       0.00000000       0.00000000      -0.00000000       0.00000000 
1
Lattice="-0.0702 1.755 1.755 1.755 0.0702 1.755 1.755 1.755 0.0" Properties=species:S:1:pos:R:3:forces:R:3 energy=-5.41064703 stress="0.01268073053634712 -0.0007168622891441956 -0.011671734412565958 -0.0007168622891441956 -0.006364185987752493 0.01639702493404403 -0.011671734412565958 0.01639702493404403 -0.0010583040458756394" pbc="T T T"
Ni       0.00000000       0.00000000       0.00000000       0.00000000       0.00000000       0.00000000 
1
Lattice="-0.0702 1.755 1.755 1.755 0.1404 1.755 1.755 1.755 0.0" Properties=species:S:1:pos:R:3:forces:R:3 energy=-5.39774111 stress="-0.011722221979885228 0.014191487820267162 -0.0104094203994017 0.014191487820267162 -0.04125002770730732 0.036959508228520024 -0.0104094203994017 0.036959508228520024 -0.03125504975537339" pbc="T T T"
Ni       0.00000000       0.00000000       0.00000000       0.00000000       0.00000000       0.00000000 
1
Lattice="-0.0702 1.755 1.755 1.755 0.2106 1.755 1.755 1.755 0.0" Properties=species:S:1:pos:R:3:forces:R:3 energy=-5.36811515 stress="-0.04043514251734112 0.033559620894450644 -0.008896191477867807 0.033559620894450644 -0.07884629469684994 0.06282986450628403 -0.008896191477867807 0.06282986450628403 -0.06715278365894378" pbc="T T T"
Ni       0.00000000       0.00000000       0.00000000       0.00000000       0.00000000       0.00000000 
1
Lattice="-0.0702 1.755 1.755 1.755 0.2808 1.755 1.755 1.755 0.0" Properties=species:S:1:pos:R:3:forces:R:3 energy=-5.3187079 stress="-0.07722373950146709 0.05772605766386677 -0.007011099684122915 0.05772605766386677 -0.11993101603495825 0.09393365128799164 -0.007011099684122915 0.09393365128799164 -0.11227682245804994" pbc="T T T"
Ni       0.00000000       0.00000000       0.00000000       0.00000000       0.00000000      -0.00000000 
1
Lattice="-0.0702 1.755 1.755 1.755 0.351 1.755 1.755 1.755 0.0" Properties=species:S:1:pos:R:3:forces:R:3 energy=-5.24658105 stress="-0.12277857350195084 0.08656649223276446 -0.00457896458153086 0.08656649223276446 -0.16510014973749892 0.13056178531400028 -0.00457896458153086 0.13056178531400028 -0.16863752503459323" pbc="T T T"
Ni       0.00000000       0.00000000       0.00000000       0.00000000       0.00000000       0.00000000 
1
Lattice="-0.1404 1.755 1.755 1.755 0.0 1.755 1.755 1.755 0.0" Properties=species:S:1:pos:R:3:forces:R:3 energy=-5.39381211 stress="0.05592095705107919 -0.02087587570919572 -0.02087587570919572 -0.02087587570919572 0.03888376549202983 0.0012914805853095118 -0.02087587570919572 0.0012914805853095118 0.03888376549202983" pbc="T T T"
Ni       0.00000000       0.00000000       0.00000000       0.00000000       0.00000000       0.00000000 
1
Lattice="-0.1404 1.755 1.755 1.755 -0.0702 1.755 1.755 1.755 0.0" Properties=species:S:1:pos:R:3:forces:R:3 energy=-5.37725308 stress="0.06783028699154016 -0.026846160056013722 -0.021045707172511006 -0.026846160056013722 0.06027981481328578 -0.011464285373748976 -0.021045707172511006 -0.011464285373748976 0.057404907053303575" pbc="T T T"
Ni       0.00000000       0.00000000       0.00000000       0.00000000      -0.00000000       0.00000000 
1
Lattice="-0.1404 1.755 1.755 1.755 -0.1404 1.755 1.755 1.755 0.0" Properties=species:S:1:pos:R:3:forces:R:3 energy=-5.35284669 stress="0.07771980216377403 -0.03135986341812435 -0.020763328816637793 -0.03135986341812435 0.07771980216377403 -0.020763328816637793 -0.020763328816637793 -0.020763328816637793 0.07199140126162051" pbc="T T T"
Ni       0.00000000       0.00000000       0.00000000      -0.00000000      -0.00000000       0.00000000 
1
Lattice="-0.1404 1.755 1.755 1.755 0.0702 1.755 1.755 1.755 0.0" Properties=species:S:1:pos:R:3:forces:R:3 energy=-5.40049683 stress="0.041541487458958685 -0.013373419460646772 -0.020262790992287585 -0.013373419460646772 0.013743291291446611 0.017353224132129343 -0.020262790992287585 0.017353224132129343 0.01564753827669884" pbc="T T T"
Ni       0.00000000       0.00000000       0.00000000       0.00000000       0.00000000      -0.00000000 
1
Lattice="-0.1404 1.755 1.755 1.755 0.1404 1.755 1.755 1.755 0.0" Properties=species:S:1:pos:R:3:forces:R:3 energy=-5.39519522 stress="0.0230311624330001 -0.0030219826810245266 -0.019042956690234085 -0.0030219826810245266 -0.015882924310363273 0.037870512659024816 -0.019042956690234085 0.037870512659024816 -0.013441564257283165" pbc="T T T"
Ni       0.00000000       0.00000000       0.00000000       0.00000000       0.00000000       0.00000000 
1
Lattice="-0.1404 1.755 1.755 1.755 0.2106 1.755 1.755 1.755 0.0" Properties=species:S:1:pos:R:3:forces:R:3 energy=-5.37516472 stress="0.0006464018926220996 0.010898367741305143 -0.017523529950138193 0.010898367741305143 -0.04807419419311002 0.06330640996955435 -0.017523529950138193 0.06330640996955435 -0.048596777027692856" pbc="T T T"
Ni       0.00000000       0.00000000       0.00000000      -0.00000000       0.00000000       0.00000000 
1
Lattice="-0.1404 1.755 1.755 1.755 0.2808 1.755 1.755 1.755 0.0" Properties=species:S:1:pos:R:3:forces:R:3 energy=-5.33773291 stress="-0.027269078472874447 0.028321303288861472 -0.015401847511467573 0.028321303288861472 -0.0844027420225854 0.09362421599005773 -0.015401847511467573 0.09362421599005773 -0.09261230508151477" pbc="T T T"
Ni       0.00000000       0.00000000       0.00000000       0.00000000       0.00000000       0.00000000 
1
Lattice="-0.1404 1.755 1.755 1.755 0.351 1.755 1.755 1.755 0.0" Properties=species:S:1:pos:R:3:forces:R:3 energy=-5.2801701 stress="-0.06175685546490781 0.04958588770339895 -0.012827349827223245 0.04958588770339895 -0.12415644281507168 0.12901714911854492 -0.012827349827223245 0.12901714911854492 -0.14675740299006118" pbc="T T T"
Ni       0.00000000       0.00000000       0.00000000       0.00000000      -0.00000000       0.00000000 
1
Lattice="-0.2106 1.755 1.755 1.755 0.0 1.755 1.755 1.755 0.0" Properties=species:S:1:pos:R:3:forces:R:3 energy=-5.36980941 stress="0.07563842739103836 -0.027304218169253172 -0.027304218169253172 -0.027304218169253172 0.0523727402526332 0.002652778691701154 -0.027304218169253172 0.002652778691701154 0.0523727402526332" pbc="T T T"
Ni       0.00000000       0.00000000       0.00000000       0.00000000       0.00000000      -0.00000000 
1
Lattice="-0.2106 1.755 1.755 1.755 -0.0702 1.755 1.755 1.755 0.0" Properties=species:S:1:pos:R:3:forces:R:3 energy=-5.34972191 stress="0.08437018006947565 -0.03155589049524096 -0.02751368321551781 -0.03155589049524096 0.07120947748134811 -0.010380391140457216 -0.02751368321551781 -0.010380391140457216 0.07010887472812637" pbc="T T T"
Ni       0.00000000       0.00000000       0.00000000      -0.00000000       0.00000000       0.00000000 
1
Lattice="-0.2106 1.755 1.755 1.755 -0.1404 1.755 1.755 1.755 0.0" Properties=species:S:1:pos:R:3:forces:R:3 energy=-5.32243164 stress="0.0918793896308988 -0.03458085661762766 -0.027270445363373013 -0.03458085661762766 0.08653383041550872 -0.020014403895113934 -0.027270445363373013 -0.020014403895113934 0.08398076607360266" pbc="T T T"
Ni       0.00000000       0.00000000       0.00000000       0.00000000       0.00000000       0.00000000 
1
Lattice="-0.2106 1.755 1.755 1.755 -0.2106 1.755 1.755 1.755 0.0" Properties=species:S:1:pos:R:3:forces:R:3 energy=-5.2896437 stress="0.09825378672758124 -0.036704061984525 -0.02693324159133804 -0.036704061984525 0.09825378672758124 -0.02693324159133804 -0.02693324159133804 -0.02693324159133804 0.0948253320062427" pbc="T T T"
Ni       0.00000000       0.00000000       0.00000000       0.00000000      -0.00000000       0.00000000 
1
Lattice="-0.2106 1.755 1.755 1.755 0.0702 1.755 1.755 1.755 0.0" Properties=species:S:1:pos:R:3:forces:R:3 energy=-5.38092974 stress="0.06504214244991685 -0.0224192448782985 -0.026660493884046073 -0.0224192448782985 0.03026519009857219 0.018959751132076937 -0.026660493884046073 0.018959751132076937 0.02990926179915956" pbc="T T T"
Ni       0.00000000       0.00000000       0.00000000       0.00000000      -0.00000000       0.00000000 
1
Lattice="-0.2106 1.755 1.755 1.755 0.1404 1.755 1.755 1.755 0.0" Properties=species:S:1:pos:R:3:forces:R:3 energy=-5.38123974 stress="0.05136533571367914 -0.01573066893674648 -0.025719062096552597 -0.01573066893674648 0.0044434676599170615 0.03914626464133711 -0.025719062096552597 0.03914626464133711 0.0016952812597176555" pbc="T T T"
Ni       0.00000000       0.00000000       0.00000000       0.00000000       0.00000000      -0.00000000 
1
Lattice="-0.2106 1.755 1.755 1.755 0.2106 1.755 1.755 1.755 0.0" Properties=species:S:1:pos:R:3:forces:R:3 energy=-5.36844378 stress="0.034683061329563995 -0.006320570321980822 -0.024335781395019594 -0.006320570321980822 -0.024042667643449863 0.06407832236918883 -0.024335781395019594 0.06407832236918883 -0.03277781570285163" pbc="T T T"
Ni       0.00000000       0.00000000       0.00000000       0.00000000       0.00000000      -0.00000000 
1
Lattice="-0.2106 1.755 1.755 1.755 0.2808 1.755 1.755 1.755 0.0" Properties=species:S:1:pos:R:3:forces:R:3 energy=-5.34001091 stress="0.013992052879167815 0.006004107084771162 -0.02241644244070098 0.006004107084771162 -0.05656493099665133 0.09374482691240629 -0.02241644244070098 0.09374482691240629 -0.07548529820614396" pbc="T T T"
Ni       0.00000000       0.00000000       0.00000000       0.00000000       0.00000000       0.00000000 
1
Lattice="-0.2106 1.755 1.755 1.755 0.351 1.755 1.755 1.755 0.0" Properties=species:S:1:pos:R:3:forces:R:3 energy=-5.29351209 stress="-0.012092193674831086 0.020958444633422026 -0.019625289491678993 0.020958444633422026 -0.09217654163887297 0.12782463390193544 -0.019625289491678993 0.12782463390193544 -0.12815269386310096" pbc="T T T"
Ni       0.00000000       0.00000000       0.00000000      -0.00000000      -0.00000000       0.00000000 
1
Lattice="-0.2808 1.755 1.755 1.755 0.0 1.755 1.755 1.755 0.0" Properties=species:S:1:pos:R:3:forces:R:3 energy=-5.33963205 stress="0.09156082924662284 -0.032081637774950614 -0.032081637774950614 -0.032081637774950614 0.06333752389254686 0.004285438890358823 -0.032081637774950614 0.004285438890358823 0.06333752389254686" pbc="T T T"
Ni       0.00000000       0.00000000       0.00000000       0.00000000       0.00000000       0.00000000 
1
Lattice="-0.2808 1.755 1.755 1.755 -0.0702 1.755 1.755 1.755 0.0" Properties=species:S:1:pos:R:3:forces:R:3 energy=-5.316931 stress="0.09758668799069772 -0.03481497562493954 -0.03196904095031968 -0.03481497562493954 0.08008925379021484 -0.008819957685404268 -0.03196904095031968 -0.008819957685404268 0.08013593403696732" pbc="T T T"
Ni       0.00000000       0.00000000       0.00000000       0.00000000       0.00000000       0.00000000 
1
Lattice="-0.2808 1.755 1.755 1.755 -0.1404 1.755 1.755 1.755 0.0" Properties=species:S:1:pos:R:3:forces:R:3 energy=-5.28745718 stress="0.10299275239555414 -0.03675038022374818 -0.03187779008689927 -0.03675038022374818 0.0940039868543312 -0.01893553407666851 -0.03187779008689927 -0.01893553407666851 0.09371869371369622" pbc="T T T"
Ni       0.00000000       0.00000000       0.00000000       0.00000000      -0.00000000       0.00000000 
1
Lattice="-0.2808 1.755 1.755 1.755 -0.2106 1.755 1.755 1.755 0.0" Properties=species:S:1:pos:R:3:forces:R:3 energy=-5.25279442 stress="0.10779784685271572 -0.03787083721749936 -0.03159167930856878 -0.03787083721749936 0.10467180573154448 -0.026214575506056468 -0.03159167930856878 -0.026214575506056468 0.10438796686253582" pbc="T T T"
Ni       0.00000000       0.00000000       0.00000000       0.00000000      -0.00000000      -0.00000000 
1
Lattice="-0.2808 1.755 1.755 1.755 -0.2808 1.755 1.755 1.755 0.0" Properties=species:S:1:pos:R:3:forces:R:3 energy=-5.21440082 stress="0.11214731114368787 -0.03830887256946298 -0.031003903911166097 -0.03830887256946298 0.11214731114368787 -0.031003903911166097 -0.031003903911166097 -0.031003903911166097 0.1125665657946917" pbc="T T T"
Ni       0.00000000       0.00000000       0.00000000       0.00000000      -0.00000000       0.00000000 
1
Lattice="-0.2808 1.755 1.755 1.755 0.0702 1.755 1.755 1.755 0.0" Properties=species:S:1:pos:R:3:forces:R:3 energy=-5.35401972 stress="0.08368794567296187 -0.028728006265013158 -0.03154353230717172 -0.028728006265013158 0.04330362152292368 0.02075957142814401 -0.03154353230717172 0.02075957142814401 0.04160925776504752" pbc="T T T"
Ni       0.00000000       0.00000000       0.00000000       0.00000000       0.00000000       0.00000000 
1
Lattice="-0.2808 1.755 1.755 1.755 0.1404 1.755 1.755 1.755 0.0" Properties=species:S:1:pos:R:3:forces:R:3 energy=-5.35843478 stress="0.07394949374610173 -0.024732167156586188 -0.030620469281035713 -0.024732167156586188 0.020946835426447888 0.04098238555448031 -0.030620469281035713 0.04098238555448031 0.01437201723022421" pbc="T T T"
Ni       0.00000000       0.00000000       0.00000000       0.00000000       0.00000000       0.00000000 
1
Lattice="-0.2808 1.755 1.755 1.755 0.2106 1.755 1.755 1.755 0.0" Properties=species:S:1:pos:R:3:forces:R:3 energy=-5.35083072 stress="0.0623551977372606 -0.01886786987623481 -0.029383695523214563 -0.01886786987623481 -0.005043076958622415 0.06526203705793084 -0.029383695523214563 0.06526203705793084 -0.019052537406742318" pbc="T T T"
Ni       0.00000000       0.00000000       0.00000000       0.00000000      -0.00000000      -0.00000000 
1
Lattice="-0.2808 1.755 1.755 1.755 0.2808 1.755 1.755 1.755 0.0" Properties=species:S:1:pos:R:3:forces:R:3 energy=-5.32903872 stress="0.0468543286835109 -0.010746418201635513 -0.02746128574640602 -0.010746418201635513 -0.03460335725802647 0.09411523551299096 -0.02746128574640602 0.09411523551299096 -0.06069594246821755" pbc="T T T"
Ni       0.00000000       0.00000000       0.00000000       0.00000000       0.00000000      -0.00000000 
1
Lattice="-0.2808 1.755 1.755 1.755 0.351 1.755 1.755 1.755 0.0" Properties=species:S:1:pos:R:3:forces:R:3 energy=-5.29083773 stress="0.02719286964644741 -0.00038385905275094626 -0.024772243886683483 -0.00038385905275094626 -0.06622624411222466 0.12724701343988057 -0.024772243886683483 0.12724701343988057 -0.11132669624834411" pbc="T T T"
Ni       0.00000000       0.00000000       0.00000000       0.00000000      -0.00000000       0.00000000 
1
Lattice="-0.351 1.755 1.755 1.755 0.0 1.755 1.755 1.755 0.0" Properties=species:S:1:pos:R:3:forces:R:3 energy=-5.30475334 stress="0.10384367605921316 -0.0352169475371738 -0.0352169475371738 -0.0352169475371738 0.07209177721138296 0.00620872871995412 -0.0352169475371738 0.00620872871995412 0.07209177721138296" pbc="T T T"
Ni       0.00000000       0.00000000       0.00000000       0.00000000       0.00000000       0.00000000 
1
Lattice="-0.351 1.755 1.755 1.755 -0.0702 1.755 1.755 1.755 0.0" Properties=species:S:1:pos:R:3:forces:R:3 energy=-5.28013624 stress="0.10819607385947447 -0.03683321129135777 -0.0352778584247333 -0.03683321129135777 0.0876284850105335 -0.0071422525153851 -0.0352778584247333 -0.0071422525153851 0.08872185385467835" pbc="T T T"
Ni       0.00000000       0.00000000       0.00000000       0.00000000       0.00000000       0.00000000 
1
Lattice="-0.351 1.755 1.755 1.755 -0.1404 1.755 1.755 1.755 0.0" Properties=species:S:1:pos:R:3:forces:R:3 energy=-5.24907691 stress="0.11152784760445307 -0.03783579114375753 -0.03508004003449755 -0.03783579114375753 0.10011512957910215 -0.01750303907567792 -0.03508004003449755 -0.01750303907567792 0.10154049053516186" pbc="T T T"
Ni       0.00000000       0.00000000       0.00000000       0.00000000      -0.00000000       0.00000000 
1
Lattice="-0.351 1.755 1.755 1.755 -0.2106 1.755 1.755 1.755 0.0" Properties=species:S:1:pos:R:3:forces:R:3 energy=-5.21307377 stress="0.11484905447448156 -0.038199870854088554 -0.03458552526645382 -0.038199870854088554 0.11000951312845421 -0.02502423233462277 -0.03458552526645382 -0.02502423233462277 0.11196648838280189" pbc="T T T"
Ni       0.00000000       0.00000000       0.00000000       0.00000000       0.00000000       0.00000000 
1
Lattice="-0.351 1.755 1.755 1.755 -0.2808 1.755 1.755 1.755 0.0" Properties=species:S:1:pos:R:3:forces:R:3 energy=-5.17362637 stress="0.11813955311961072 -0.03794200914606181 -0.03390734160936273 -0.03794200914606181 0.11704052946819782 -0.03005525069761398 -0.03390734160936273 -0.03005525069761398 0.12022709450336277" pbc="T T T"
Ni       0.00000000       0.00000000       0.00000000       0.00000000       0.00000000       0.00000000 
1
Lattice="-0.351 1.755 1.755 1.755 -0.351 1.755 1.755 1.755 0.0" Properties=species:S:1:pos:R:3:forces:R:3 energy=-5.13204186 stress="0.1213497797158719 -0.0371003291574182 -0.03284112332991547 -0.0371003291574182 0.1213497797158719 -0.03284112332991547 -0.03284112332991547 -0.03284112332991547 0.12635522037446523" pbc="T T T"
Ni       0.00000000       0.00000000       0.00000000       0.00000000       0.00000000       0.00000000 
1
Lattice="-0.351 1.755 1.755 1.755 0.0702 1.755 1.755 1.755 0.0" Properties=species:S:1:pos:R:3:forces:R:3 energy=-5.32142377 stress="0.09876456686840702 -0.03322236094883354 -0.03494142859982994 -0.03322236094883354 0.05419664653241706 0.02273022182898651 -0.03494142859982994 0.02273022182898651 0.051409706602055044" pbc="T T T"
Ni       0.00000000       0.00000000       0.00000000       0.00000000       0.00000000       0.00000000 
1
Lattice="-0.351 1.755 1.755 1.755 0.1404 1.755 1.755 1.755 0.0" Properties=species:S:1:pos:R:3:forces:R:3 energy=-5.32873187 stress="0.09235546073947555 -0.03102108054428053 -0.03402769662983713 -0.03102108054428053 0.03401472053236442 0.04286745862369783 -0.03402769662983713 0.04286745862369783 0.025250705493255445" pbc="T T T"
Ni       0.00000000       0.00000000       0.00000000       0.00000000       0.00000000       0.00000000 
1
Lattice="-0.351 1.755 1.755 1.755 0.2106 1.755 1.755 1.755 0.0" Properties=species:S:1:pos:R:3:forces:R:3 energy=-5.32487566 stress="0.08417202463774712 -0.02746916253092288 -0.032672858485390775 -0.02746916253092288 0.010152444985670835 0.06698814513122123 -0.032672858485390775 0.06698814513122123 -0.0074658061069617625" pbc="T T T"
Ni       0.00000000       0.00000000       0.00000000       0.00000000       0.00000000       0.00000000 
1
Lattice="-0.351 1.755 1.755 1.755 0.2808 1.755 1.755 1.755 0.0" Properties=species:S:1:pos:R:3:forces:R:3 energy=-5.30778104 stress="0.07337822714033702 -0.022916755570722657 -0.030959714026554844 -0.022916755570722657 -0.01626996653276842 0.09494209815896973 -0.030959714026554844 0.09494209815896973 -0.04730947201198856" pbc="T T T"
Ni       0.00000000       0.00000000       0.00000000       0.00000000      -0.00000000       0.00000000 
1
Lattice="-0.351 1.755 1.755 1.755 0.351 1.755 1.755 1.755 0.0" Properties=species:S:1:pos:R:3:forces:R:3 energy=-5.27573783 stress="0.05888785217255868 -0.016325902937554586 -0.028381259225524706 -0.016325902937554586 -0.045630237672233544 0.12712740740050127 -0.028381259225524706 0.12712740740050127 -0.09707528369895933" pbc="T T T"
Ni       0.00000000       0.00000000       0.00000000       0.00000000       0.00000000       0.00000000 
1
Lattice="0.0702 1.755 1.755 1.755 0.0 1.755 1.755 1.755 0.0" Properties=species:S:1:pos:R:3:forces:R:3 energy=-5.40881635 stress="-0.03183813777942253 0.01586783234129689 0.01586783234129689 0.01586783234129689 -0.022050908458743627 9.377867461639596e-05 0.01586783234129689 9.377867461639596e-05 -0.022050908458743627" pbc="T T T"
Ni       0.00000000       0.00000000       0.00000000       0.00000000       0.00000000      -0.00000000 
1
Lattice="0.0702 1.755 1.755 1.755 0.0702 1.755 1.755 1.755 0.0" Properties=species:S:1:pos:R:3:forces:R:3 energy=-5.39204375 stress="-0.06234969272621158 0.037454990430478265 0.015910405675044537 0.037454990430478265 -0.06234969272621158 0.015910405675044537 0.015910405675044537 0.015910405675044537 -0.04643863169270882" pbc="T T T"
Ni       0.00000000       0.00000000       0.00000000      -0.00000000       0.00000000      -0.00000000 
1
Lattice="0.0702 1.755 1.755 1.755 0.1404 1.755 1.755 1.755 0.0" Properties=species:S:1:pos:R:3:forces:R:3 energy=-5.35684956 stress="-0.09916821774659615 0.06489883115887744 0.016417272389648394 0.06489883115887744 -0.10847515045702008 0.036480615957818374 0.016417272389648394 0.036480615957818374 -0.07671446356434064" pbc="T T T"
Ni       0.00000000       0.00000000       0.00000000       0.00000000       0.00000000       0.00000000 
1
Lattice="0.0702 1.755 1.755 1.755 0.2106 1.755 1.755 1.755 0.0" Properties=species:S:1:pos:R:3:forces:R:3 energy=-5.29916058 stress="-0.14541363104129498 0.09938733840747854 0.016921811021348293 0.09938733840747854 -0.16121303771804485 0.06314151553995763 0.016921811021348293 0.06314151553995763 -0.11471216569633272" pbc="T T T"
Ni       0.00000000       0.00000000       0.00000000       0.00000000       0.00000000       0.00000000 
1
Lattice="0.0702 1.755 1.755 1.755 0.2808 1.755 1.755 1.755 0.0" Properties=species:S:1:pos:R:3:forces:R:3 energy=-5.21486986 stress="-0.2034435128863915 0.14082169036229145 0.017539707941792482 0.14082169036229145 -0.21974272713092385 0.09608704683453087 0.017539707941792482 0.09608704683453087 -0.1631170537674594" pbc="T T T"
Ni       0.00000000       0.00000000       0.00000000       0.00000000       0.00000000       0.00000000 
1
Lattice="0.0702 1.755 1.755 1.755 0.351 1.755 1.755 1.755 0.0" Properties=species:S:1:pos:R:3:forces:R:3 energy=-5.10017628 stress="-0.27597255150260647 0.1889601783409072 0.01878399647660119 0.1889601783409072 -0.2829449351056216 0.13537494380095252 0.01878399647660119 0.13537494380095252 -0.22443398894464758" pbc="T T T"
Ni       0.00000000       0.00000000       0.00000000       0.00000000       0.00000000       0.00000000 
1
Lattice="0.1404 1.755 1.755 1.755 0.0 1.755 1.755 1.755 0.0" Properties=species:S:1:pos:R:3:forces:R:3 energy=-5.38608885 stress="-0.07164454811647693 0.03647667132405082 0.03647667132405082 0.03647667132405082 -0.0519329947271691 0.0009714971369528551 0.03647667132405082 0.0009714971369528551 -0.0519329947271691" pbc="T T T"
Ni       0.00000000       0.00000000       0.00000000       0.00000000       0.00000000       0.00000000 
1
Lattice="0.1404 1.755 1.755 1.755 0.1404 1.755 1.755 1.755 0.0" Properties=species:S:1:pos:R:3:forces:R:3 energy=-5.30585509 stress="-0.15471145738990427 0.10047098922191439 0.03691103666864841 0.10047098922191439 -0.15471145738990427 0.03691103666864841 0.03691103666864841 0.03691103666864841 -0.10797891303245762" pbc="T T T"
Ni       0.00000000       0.00000000       0.00000000      -0.00000000      -0.00000000       0.00000000 
1
Lattice="0.1404 1.755 1.755 1.755 0.2106 1.755 1.755 1.755 0.0" Properties=species:S:1:pos:R:3:forces:R:3 energy=-5.22858851 stress="-0.21226973080544903 0.14431696043882256 0.03718194937225738 0.14431696043882256 -0.21806039700264235 0.06383799930180582 0.03718194937225738 0.06383799930180582 -0.1475762328137949" pbc="T T T"
Ni       0.00000000       0.00000000       0.00000000      -0.00000000       0.00000000       0.00000000 
1
Lattice="0.1404 1.755 1.755 1.755 0.2808 1.755 1.755 1.755 0.0" Properties=species:S:1:pos:R:3:forces:R:3 energy=-5.12028019 stress="-0.28357377339156337 0.19653280163504933 0.037554392704817086 0.19653280163504933 -0.2883348527263693 0.09735274998715049 0.037554392704817086 0.09735274998715049 -0.19836105824669392" pbc="T T T"
Ni       0.00000000       0.00000000       0.00000000       0.00000000       0.00000000       0.00000000 
1
Lattice="0.1404 1.755 1.755 1.755 0.351 1.755 1.755 1.755 0.0" Properties=species:S:1:pos:R:3:forces:R:3 energy=-4.97645515 stress="-0.3722045761111134 0.25674229336501375 0.03850013113360742 0.25674229336501375 -0.3653057237271104 0.1377662906414069 0.03850013113360742 0.1377662906414069 -0.26312433006886626" pbc="T T T"
Ni       0.00000000       0.00000000       0.00000000       0.00000000      -0.00000000       0.00000000 
1
Lattice="0.2106 1.755 1.755 1.755 0.0 1.755 1.755 1.755 0.0" Properties=species:S:1:pos:R:3:forces:R:3 energy=-5.3441223 stress="-0.11541610182007718 0.06265480889983037 0.06265480889983037 0.06265480889983037 -0.0881336290686186 0.0020824046217414387 0.06265480889983037 0.0020824046217414387 -0.0881336290686186" pbc="T T T"
Ni       0.00000000       0.00000000       0.00000000      -0.00000000       0.00000000       0.00000000 
1
Lattice="0.2106 1.755 1.755 1.755 0.2106 1.755 1.755 1.755 0.0" Properties=species:S:1:pos:R:3:forces:R:3 energy=-5.12716327 stress="-0.2884474620340185 0.19884945633579426 0.06415491816918166 0.19884945633579426 -0.2884474620340185 0.06415491816918166 0.06415491816918166 0.06415491816918166 -0.18954022050850292" pbc="T T T"
Ni       0.00000000       0.00000000       0.00000000       0.00000000       0.00000000       0.00000000 
1
Lattice="0.2106 1.755 1.755 1.755 0.2808 1.755 1.755 1.755 0.0" Properties=species:S:1:pos:R:3:forces:R:3 energy=-4.98940018 stress="-0.3753929012518519 0.26355769677200375 0.06470486377977237 0.26355769677200375 -0.37325772467045104 0.09835652196779328 0.06470486377977237 0.09835652196779328 -0.2432099401159855" pbc="T T T"
Ni       0.00000000       0.00000000       0.00000000       0.00000000       0.00000000       0.00000000 
1
Lattice="0.2106 1.755 1.755 1.755 0.351 1.755 1.755 1.755 0.0" Properties=species:S:1:pos:R:3:forces:R:3 energy=-4.81004725 stress="-0.4829391715962306 0.33865346239360133 0.06571606315627497 0.33865346239360133 -0.4665521143522605 0.1396011694942341 0.06571606315627497 0.1396011694942341 -0.31176882967533565" pbc="T T T"
Ni       0.00000000       0.00000000       0.00000000      -0.00000000       0.00000000      -0.00000000 
1
Lattice="0.2808 1.755 1.755 1.755 0.0 1.755 1.755 1.755 0.0" Properties=species:S:1:pos:R:3:forces:R:3 energy=-5.27926034 stress="-0.1648155306798495 0.09491248843967653 0.09491248843967653 0.09491248843967653 -0.13518922769691186 0.003321799813395455 0.09491248843967653 0.003321799813395455 -0.13518922769691186" pbc="T T T"
Ni       0.00000000       0.00000000       0.00000000      -0.00000000       0.00000000       0.00000000 
1
Lattice="0.2808 1.755 1.755 1.755 0.2808 1.755 1.755 1.755 0.0" Properties=species:S:1:pos:R:3:forces:R:3 energy=-4.81580631 stress="-0.4779814909654685 0.3435713534036859 0.09928796734068535 0.3435713534036859 -0.4779814909654685 0.09928797358219449 0.09928796734068535 0.09928797358219449 -0.3007656108222248" pbc="T T T"
Ni       0.00000000       0.00000000       0.00000000       0.00000000       0.00000000      -0.00000000 
1
Lattice="0.2808 1.755 1.755 1.755 0.351 1.755 1.755 1.755 0.0" Properties=species:S:1:pos:R:3:forces:R:3 energy=-4.59344092 stress="-0.6076946245251316 0.43606254200061295 0.10068902386020885 0.43606254200061295 -0.5912963700137898 0.14126483126872003 0.10068902386020885 0.14126483126872003 -0.3752603003904725" pbc="T T T"
Ni       0.00000000       0.00000000       0.00000000       0.00000000       0.00000000       0.00000000 
1
Lattice="0.351 1.755 1.755 1.755 0.0 1.755 1.755 1.755 0.0" Properties=species:S:1:pos:R:3:forces:R:3 energy=-5.18824508 stress="-0.21731564765072373 0.13262969091004229 0.13262969091004229 0.13262969091004229 -0.19447256061221385 0.005060465803047125 0.13262969091004229 0.005060465803047125 -0.19447256061221385" pbc="T T T"
Ni       0.00000000       0.00000000       0.00000000      -0.00000000      -0.00000000       0.00000000 
1
Lattice="0.351 1.755 1.755 1.755 0.351 1.755 1.755 1.755 0.0" Properties=species:S:1:pos:R:3:forces:R:3 energy=-4.31920284 stress="-0.7418848674789001 0.5486275786255688 0.1435653142193198 0.5486275786255688 -0.7418848674789001 0.1435653142193198 0.1435653142193198 0.1435653142193198 -0.45545517299811544" pbc="T T T"
Ni       0.00000000       0.00000000       0.00000000       0.00000000      -0.00000000       0.00000000 
1
Lattice="-0.0702 1.755 1.755 1.755 -0.0702 1.755 1.755 1.755 -0.0702" Properties=species:S:1:pos:R:3:forces:R:3 energy=-5.37982431 stress="0.062271973454576086 -0.020848032336985158 -0.020848032336985158 -0.020848032336985158 0.062271973454576086 -0.020848032336985158 -0.020848032336985158 -0.020848032336985158 0.062271973454576086" pbc="T T T"
Ni       0.00000000       0.00000000       0.00000000       0.00000000      -0.00000000       0.00000000 
1
Lattice="-0.1404 1.755 1.755 1.755 -0.0702 1.755 1.755 1.755 -0.0702" Properties=species:S:1:pos:R:3:forces:R:3 energy=-5.35432454 stress="0.07883681384448774 -0.027114114284297018 -0.027114114284297018 -0.027114114284297018 0.07444656129137794 -0.020649845697710983 -0.027114114284297018 -0.020649845697710983 0.07444656129137794" pbc="T T T"
Ni       0.00000000       0.00000000       0.00000000      -0.00000000       0.00000000      -0.00000000 
1
Lattice="-0.1404 1.755 1.755 1.755 -0.1404 1.755 1.755 1.755 -0.0702" Properties=species:S:1:pos:R:3:forces:R:3 energy=-5.32511649 stress="0.08861369474303592 -0.03151007157674785 -0.027126222812001225 -0.03151007157674785 0.08861369474303592 -0.027126222812001225 -0.027126222812001225 -0.027126222812001225 0.08633853359495981" pbc="T T T"
Ni       0.00000000       0.00000000       0.00000000      -0.00000000       0.00000000       0.00000000 
1