128
Lattice="9.05480957 0.0 0.0 0.0 9.05480957 0.0 0.0 0.0 9.05480957" Properties=species:S:1:pos:R:3:forces:R:3 etemperature=0.34469373 eentropy=14.939843166274024 energy=-429.08168458 stress="-0.38507292526334685 -5.636082740672582e-09 -2.397987806164348e-08 -5.636082740672582e-09 -0.38507300179049025 1.0410837221973275e-08 -2.397987806164348e-08 1.0410837221973275e-08 -0.38507286173102545" free_energy=-431.65651586 pbc="T T T"
Be       0.00000000       0.00000000       0.00000000       0.00000090      -0.00000006       0.00000037
Be       2.26370239       0.00000000       0.00000000       0.00000193       0.00000023       0.00000033
Be       4.52740478       0.00000000       0.00000000      -0.00000011      -0.00000191      -0.00000014
Be       6.79110718       0.00000000       0.00000000      -0.00000044       0.00000151       0.00000118
Be       0.00000000       2.26370239       0.00000000      -0.00000098       0.00000048      -0.00000177
Be       2.26370239       2.26370239       0.00000000       0.00000163       0.00000008       0.00000110
Be       4.52740478       2.26370239       0.00000000       0.00000224      -0.00000001       0.00000039
Be       6.79110718       2.26370239       0.00000000      -0.00000041      -0.00000123      -0.00000047
Be       0.00000000       4.52740478       0.00000000      -0.00000039      -0.00000043      -0.00000030
Be       2.26370239       4.52740478       0.00000000       0.00000065       0.00000000       0.00000085
Be       4.52740478       4.52740478       0.00000000       0.00000220       0.00000039      -0.00000069
Be       6.79110718       4.52740478       0.00000000      -0.00000084       0.00000135       0.00000087
Be       0.00000000       6.79110718       0.00000000       0.00000117       0.00000123      -0.00000065
Be       2.26370239       6.79110718       0.00000000      -0.00000043       0.00000092      -0.00000015
Be       4.52740478       6.79110718       0.00000000      -0.00000040       0.00000053      -0.00000070
Be       6.79110718       6.79110718       0.00000000       0.00000060       0.00000006      -0.00000128
Be       0.00000000       0.00000000       2.26370239       0.00000010       0.00000071       0.00000035
Be       2.26370239       0.00000000       2.26370239       0.00000008      -0.00000135      -0.00000006
Be       4.52740478       0.00000000       2.26370239       0.00000044       0.00000138      -0.00000013
Be       6.79110718       0.00000000       2.26370239       0.00000111      -0.00000007       0.00000001
Be       0.00000000       2.26370239       2.26370239      -0.00000101       0.00000011      -0.00000054
Be       2.26370239       2.26370239       2.26370239      -0.00000118       0.00000040      -0.00000143
Be       4.52740478       2.26370239       2.26370239       0.00000066       0.00000126       0.00000063
Be       6.79110718       2.26370239       2.26370239       0.00000081       0.00000019       0.00000058
Be       0.00000000       4.52740478       2.26370239      -0.00000134       0.00000132      -0.00000114
Be       2.26370239       4.52740478       2.26370239       0.00000009       0.00000110       0.00000077
Be       4.52740478       4.52740478       2.26370239       0.00000042      -0.00000199       0.00000037
Be       6.79110718       4.52740478       2.26370239       0.00000104      -0.00000039      -0.00000031
Be       0.00000000       6.79110718       2.26370239      -0.00000084      -0.00000163      -0.00000013
Be       2.26370239       6.79110718       2.26370239      -0.00000185       0.00000150      -0.00000137
Be       4.52740478       6.79110718       2.26370239       0.00000093      -0.00000013       0.00000076
Be       6.79110718       6.79110718       2.26370239      -0.00000101      -0.00000156      -0.00000003
Be       0.00000000       0.00000000       4.52740478      -0.00000103       0.00000117      -0.00000051
Be       2.26370239       0.00000000       4.52740478      -0.00000077      -0.00000120       0.00000100
Be       4.52740478       0.00000000       4.52740478       0.00000096       0.00000049      -0.00000160
Be       6.79110718       0.00000000       4.52740478       0.00000179      -0.00000219       0.00000063
Be       0.00000000       2.26370239       4.52740478      -0.00000047       0.00000107       0.00000033
Be       2.26370239       2.26370239       4.52740478      -0.00000011      -0.00000026       0.00000027
Be       4.52740478       2.26370239       4.52740478      -0.00000067       0.00000028      -0.00000160
Be       6.79110718       2.26370239       4.52740478       0.00000032       0.00000194      -0.00000113
Be       0.00000000       4.52740478       4.52740478       0.00000105      -0.00000105       0.00000058
Be       2.26370239       4.52740478       4.52740478      -0.00000234      -0.00000053      -0.00000094
Be       4.52740478       4.52740478       4.52740478      -0.00000021      -0.00000106       0.00000018
Be       6.79110718       4.52740478       4.52740478      -0.00000047       0.00000080      -0.00000022
Be       0.00000000       6.79110718       4.52740478       0.00000199       0.00000072       0.00000085
Be       2.26370239       6.79110718       4.52740478       0.00000078      -0.00000001       0.00000069
Be       4.52740478       6.79110718       4.52740478       0.00000083      -0.00000070      -0.00000098
Be       6.79110718       6.79110718       4.52740478       0.00000026       0.00000133       0.00000035
Be       0.00000000       0.00000000       6.79110718      -0.00000087      -0.00000053       0.00000088
Be       2.26370239       0.00000000       6.79110718       0.00000162       0.00000058       0.00000054
Be       4.52740478       0.00000000       6.79110718      -0.00000096      -0.00000028       0.00000061
Be       6.79110718       0.00000000       6.79110718      -0.00000072      -0.00000171      -0.00000050
Be       0.00000000       2.26370239       6.79110718       0.00000020       0.00000038      -0.00000013
Be       2.26370239       2.26370239       6.79110718      -0.00000104       0.00000061       0.00000020
Be       4.52740478       2.26370239       6.79110718       0.00000106      -0.00000035      -0.00000114
Be       6.79110718       2.26370239       6.79110718      -0.00000018       0.00000062       0.00000076
Be       0.00000000       4.52740478       6.79110718       0.00000140      -0.00000035       0.00000045
Be       2.26370239       4.52740478       6.79110718      -0.00000314       0.00000077      -0.00000009
Be       4.52740478       4.52740478       6.79110718       0.00000128      -0.00000035      -0.00000026
Be       6.79110718       4.52740478       6.79110718      -0.00000157      -0.00000229      -0.00000078
Be       0.00000000       6.79110718       6.79110718       0.00000128       0.00000082       0.00000112
Be       2.26370239       6.79110718       6.79110718      -0.00000072       0.00000041       0.00000021
Be       4.52740478       6.79110718       6.79110718       0.00000097       0.00000070       0.00000026
Be       6.79110718       6.79110718       6.79110718       0.00000056       0.00000307      -0.00000012
Be       1.13185120       1.13185120       1.13185120      -0.00022557      -0.00022492      -0.00022364
Be       3.39555359       1.13185120       1.13185120       0.00022432      -0.00022521      -0.00022270
Be       5.65925598       1.13185120       1.13185120      -0.00022370      -0.00022413      -0.00022444
Be       7.92295837       1.13185120       1.13185120       0.00022447      -0.00022469      -0.00022465
Be       1.13185120       3.39555359       1.13185120      -0.00022630       0.00022474      -0.00022336
Be       3.39555359       3.39555359       1.13185120       0.00022497       0.00022449      -0.00022522
Be       5.65925598       3.39555359       1.13185120      -0.00022517       0.00022726      -0.00022251
Be       7.92295837       3.39555359       1.13185120       0.00022592       0.00022566      -0.00022466
Be       1.13185120       5.65925598       1.13185120      -0.00022559      -0.00022448      -0.00022445
Be       3.39555359       5.65925598       1.13185120       0.00022411      -0.00022499      -0.00022346
Be       5.65925598       5.65925598       1.13185120      -0.00022292      -0.00022574      -0.00022516
Be       7.92295837       5.65925598       1.13185120       0.00022378      -0.00022259      -0.00022443
Be       1.13185120       7.92295837       1.13185120      -0.00022487       0.00022259      -0.00022365
Be       3.39555359       7.92295837       1.13185120       0.00022515       0.00022501      -0.00022511
Be       5.65925598       7.92295837       1.13185120      -0.00022417       0.00022588      -0.00022437
Be       7.92295837       7.92295837       1.13185120       0.00022420       0.00022484      -0.00022400
Be       1.13185120       1.13185120       3.39555359      -0.00022479      -0.00022330       0.00022431
Be       3.39555359       1.13185120       3.39555359       0.00022406      -0.00022334       0.00022357
Be       5.65925598       1.13185120       3.39555359      -0.00022292      -0.00022527       0.00022492
Be       7.92295837       1.13185120       3.39555359       0.00022534      -0.00022539       0.00022401
Be       1.13185120       3.39555359       3.39555359      -0.00022503       0.00022267       0.00022432
Be       3.39555359       3.39555359       3.39555359       0.00022343       0.00022487       0.00022341
Be       5.65925598       3.39555359       3.39555359      -0.00022371       0.00022404       0.00022514
Be       7.92295837       3.39555359       3.39555359       0.00022484       0.00022503       0.00022535
Be       1.13185120       5.65925598       3.39555359      -0.00022590      -0.00022353       0.00022540
Be       3.39555359       5.65925598       3.39555359       0.00022574      -0.00022492       0.00022563
Be       5.65925598       5.65925598       3.39555359      -0.00022368      -0.00022574       0.00022383
Be       7.92295837       5.65925598       3.39555359       0.00022527      -0.00022540       0.00022388
Be       1.13185120       7.92295837       3.39555359      -0.00022353       0.00022353       0.00022576
Be       3.39555359       7.92295837       3.39555359       0.00022459       0.00022429       0.00022477
Be       5.65925598       7.92295837       3.39555359      -0.00022397       0.00022381       0.00022437
Be       7.92295837       7.92295837       3.39555359       0.00022550       0.00022443       0.00022256
Be       1.13185120       1.13185120       5.65925598      -0.00022515      -0.00022490      -0.00022420
Be       3.39555359       1.13185120       5.65925598       0.00022421      -0.00022368      -0.00022492
Be       5.65925598       1.13185120       5.65925598      -0.00022333      -0.00022539      -0.00022448
Be       7.92295837       1.13185120       5.65925598       0.00022439      -0.00022345      -0.00022527
Be       1.13185120       3.39555359       5.65925598      -0.00022430       0.00022541      -0.00022573
Be       3.39555359       3.39555359       5.65925598       0.00022594       0.00022557      -0.00022432
Be       5.65925598       3.39555359       5.65925598      -0.00022571       0.00022490      -0.00022617
Be       7.92295837       3.39555359       5.65925598       0.00022405       0.00022268      -0.00022279
Be       1.13185120       5.65925598       5.65925598      -0.00022488      -0.00022534      -0.00022444
Be       3.39555359       5.65925598       5.65925598       0.00022441      -0.00022387      -0.00022489
Be       5.65925598       5.65925598       5.65925598      -0.00022375      -0.00022375      -0.00022504
Be       7.92295837       5.65925598       5.65925598       0.00022399      -0.00022367      -0.00022454
Be       1.13185120       7.92295837       5.65925598      -0.00022432       0.00022418      -0.00022390
Be       3.39555359       7.92295837       5.65925598       0.00022376       0.00022456      -0.00022367
Be       5.65925598       7.92295837       5.65925598      -0.00022577       0.00022354      -0.00022502
Be       7.92295837       7.92295837       5.65925598       0.00022424       0.00022281      -0.00022471
Be       1.13185120       1.13185120       7.92295837      -0.00022420      -0.00022593       0.00022320
Be       3.39555359       1.13185120       7.92295837       0.00022443      -0.00022576       0.00022474
Be       5.65925598       1.13185120       7.92295837      -0.00022706      -0.00022497       0.00022407
Be       7.92295837       1.13185120       7.92295837       0.00022632      -0.00022548       0.00022461
Be       1.13185120       3.39555359       7.92295837      -0.00022393       0.00022534       0.00022433
Be       3.39555359       3.39555359       7.92295837       0.00022292       0.00022548       0.00022554
Be       5.65925598       3.39555359       7.92295837      -0.00022339       0.00022465       0.00022503
Be       7.92295837       3.39555359       7.92295837       0.00022471       0.00022521       0.00022399
Be       1.13185120       5.65925598       7.92295837      -0.00022618      -0.00022588       0.00022386
Be       3.39555359       5.65925598       7.92295837       0.00022276      -0.00022489       0.00022520
Be       5.65925598       5.65925598       7.92295837      -0.00022435      -0.00022401       0.00022567
Be       7.92295837       5.65925598       7.92295837       0.00022332      -0.00022562       0.00022394
Be       1.13185120       7.92295837       7.92295837      -0.00022292       0.00022532       0.00022376
Be       3.39555359       7.92295837       7.92295837       0.00022529       0.00022638       0.00022396
Be       5.65925598       7.92295837       7.92295837      -0.00022481       0.00022397       0.00022481
Be       7.92295837       7.92295837       7.92295837       0.00022449       0.00022477       0.00022439
128
Lattice="9.05480957 0.0 0.0 0.0 9.05480957 0.0 0.0 0.0 9.05480957" Properties=species:S:1:pos:R:3:forces:R:3 etemperature=0.34469373 eentropy=20.06401608550087 energy=-338.44553521 stress="-0.5906737292405759 0.03809096927748654 -0.004107232370370137 0.03809096927748654 -0.5540221704937763 -0.005602448652332751 -0.004107232370370137 -0.005602448652332751 -0.5760094355322652" free_energy=-341.9035003 pbc="T T T"
Be       8.80227039       0.16619569       8.97171349       1.09022336       3.77746383       2.75275307
Be       1.64553978       0.32531821       0.03475082      -1.44154882      -1.54451451       1.10465098
Be       2.91706540       8.26644624       0.78564091       1.05090231       5.61096443      -0.40721936
Be       7.10454738       0.53997913       0.05897796      -3.49389312      -2.64957235       1.33718792
Be       9.03918903       2.19108200       8.64658851      -2.95500531       0.65679735       0.74766467
Be       1.97617425       2.00989943       0.15204266       3.87745644       1.64469872       4.60016537
Be       4.44113183       2.58609508       0.19070706       4.90258284      -3.11281110       2.18526516
Be       6.83261261       3.04486371       8.38560463       0.76170153      -2.18283749       2.86350154
Be       0.90091806       3.14696774       0.79635112      -2.61673062       5.60344708      -5.57907224
Be       1.77663848       4.68204246       8.93476570       3.48846460       0.68740001       1.81989542
Be       3.97664862       4.27004690       0.32968218       0.74736928       3.87225397      -0.91922876
Be       8.52767921       4.46048141       8.71138781      -0.44628721       1.90439028       2.34623417
Be       8.92936985       6.61570230       0.31981144       0.86386949      -3.70104432      -4.44726225
Be       1.81254424       7.07405703       0.03370816      -0.36997784      -1.64787914      -3.07556072
Be       5.10266245       5.95776426       8.62256764      -4.10691197      -2.14020931       3.43168837
Be       6.79159840       6.33072698       8.71711162       5.23501133      -1.95271383       2.39730196
Be       7.98640280       9.01494043       1.77695966       4.91434574       1.81301594      -5.18177305
Be       1.73888020       0.40428765       2.28076229       1.72046054      -2.51470291      -4.35303819
Be       4.61245924       0.23869429       1.71519924       0.38790211      -1.73422114       4.25106482
Be       6.01744061       8.34638065       1.42269883       1.36280919       2.07998772      -2.54261911
Be       8.98936204       2.97365868       2.18291113      -1.78101185      -1.40243123       2.13330531
Be       1.89050579       2.54076897       2.63659693      -0.56539543       0.46942132      -1.42332718
Be       4.76787644       2.14089264       2.28816043       0.60372537      -0.71532678      -0.66439978
Be       6.83650048       2.59961899       2.54557708      -2.72215825      -3.21794421      -1.08822634
Be       8.87938721       4.76351845       2.09181712      -1.79408500      -4.15078842      -0.21011803
Be       2.80213587       4.59201737       3.43155171      -3.88239865      -1.85161383      -1.84565964
Be       4.56635749       4.72280232       1.96152230      -1.63350016       2.98913742       2.97900484
Be       6.41133832       4.65496324       2.41914314       3.91721834       3.40020437      -2.07578949
Be       8.91516956       6.56664560       2.08070940       1.23430308       4.28171048       4.58207071
Be       2.20038564       7.05823139       1.69431867      -0.95590683       0.22440084       7.18578789
Be       5.71488266       6.63934214       1.26699450       2.61489725      -5.54027520      -2.06602810
Be       6.52144037       7.21861353       2.64354414       4.39232103       1.69727971       1.41298725
Be       0.26166797       0.02735005       4.67449310      -0.27408390      -2.92868285       1.05483680
Be       2.15115138       0.08699952       4.53451806       2.51702596      -1.96566371       1.90863559
Be       4.42715039       8.89378499       4.71365434      -3.69087511      -1.14734498       3.61223343
Be       6.74657436       8.81639652       4.14177629      -1.46531906      -0.03735234       4.21453277
Be       0.46582730       1.84989497       5.09543880      -2.35165182       0.10240577      -2.80449776
Be       2.14511861       1.92480613       4.84122049      -0.77956530       3.40269560       0.74375127
Be       5.26623487       1.06874470       3.89390821       0.63991316       1.26825069      -2.96547876
Be       6.79850387       1.88960828       4.63810744      -1.57570731       1.70957907      -3.20528777
Be       8.89257871       4.69944200       4.67052601      -2.02444706       2.99275967      -2.11981051
Be       3.55624757       3.82710083       5.35421276      -6.56077590      -2.68071253      -0.44901286
Be       4.29892215       4.76755364       4.13232235       2.53143389       3.63833498      -0.05432997
Be       6.98695166       4.59062927       4.72035037      -3.27883560       1.00881279      -5.35261669
Be       8.83350124       7.02293566       4.51203778       2.71605624      -2.28522672       0.85886039
Be       2.84593525       7.15542699       4.36004682      -2.90254545      -0.45967783      -2.54196626
Be       4.20945936       7.07011456       5.24109455       6.42231077      -0.79739006      -2.39200635
Be       6.39762382       6.86704597       4.66804735       3.55425646       2.03926040      -4.68789924
Be       8.87827112       8.99003762       6.90848857      -1.95026029       0.69549044      -0.16858108
Be       2.78718466       8.64058164       7.85700577      -1.77851397      -0.23683726      -0.72102907
Be       4.70048883       8.51258584       7.02457168      -1.70039102       2.21999013       1.21333924
Be       6.90267828       8.82751981       7.13846633      -4.57919886       1.66499872      -2.79916672
Be       0.24195375       2.01462179       6.76224162      -2.61548567      -0.32011278      -1.04332767
Be       2.43935646       2.54388980       6.43569612       0.73750364       0.23233869       2.83136781
Be       4.33806745       2.47648381       6.53564601       2.04029736       0.36311124       3.21142638
Be       6.46557745       2.58850086       6.47908025      -0.10815980      -0.94049981       1.14475029
Be       9.02638879       4.93104574       6.34676494       2.39844673      -1.19083692       2.45481489
Be       2.06311111       4.83511927       7.04242170       0.66570941      -1.86448424      -2.23779627
Be       4.33600341       4.61970218       6.68290066       2.77032616      -1.20784184       1.69248082
Be       7.16278420       4.38512855       6.37745966      -3.27358402       0.67841281       3.00317082
Be       0.25596507       6.89440906       6.64584666      -2.59739777       0.51629006      -1.76232180
Be       2.34243405       6.83046309       7.17450547      -3.27456944      -1.91044246       3.33713437
Be       4.66826276       6.68851600       6.95235088      -1.01864753      -1.06891389      -1.41033228
Be       6.80655043       6.93839036       6.77295944       0.71333452       4.06100598       0.66978737
Be       0.70708012       1.71661415       1.30219480      -1.98856541      -9.11697333       2.49370535
Be       3.38661966       1.23314038       1.25912795      -3.41545607       0.98018154       0.25328250
Be       5.80879435       1.48258245       0.94360460       0.39584295      -0.52530388       0.54512049
Be       7.70387182       1.90317881       1.16805386       2.46222821      -1.17216606      -1.04576597
Be       1.72017061       4.08718847       1.68309813       3.14060617       2.28402120       6.00093404
Be       3.32437545       3.16151872       1.60859742      -0.09765174       0.32140285       0.54803722
Be       5.62187139       3.51217084       1.25895229      -0.56398708      -5.38817041       0.58043564
Be       7.51179668       3.87513904       1.03975898       2.22093533      -3.17294018       2.58134952
Be       1.15973168       5.62467820       1.36977818       1.29946665       2.52055488      -5.75460966
Be       3.19261339       6.01535258       0.70142295       0.73839146      -2.67780776       0.73938373
Be       6.20299856       4.70649479       0.40494104       1.70783258       6.25623695       0.59893900
Be       7.73669850       5.73272598       1.35774189      -6.47277315      -1.32394816      -2.92299269
Be       0.59960976       7.99448422       1.26762770       1.22001495       3.15046697      -0.01673072
Be       4.23879876       7.34873794       1.32379315      -0.14562127       2.53987441       2.10953573
Be       4.71286567       8.84840881       8.99346767       1.49545088       1.58942795       1.53987857
Be       7.72655847       7.54068659       0.88623967      -3.56454823       1.76880280       1.69245135
Be       1.13982070       1.17854522       3.54236673       0.80221898       2.63551383       1.28686601
Be       3.07161144       1.54811537       3.54161573       2.32107457      -3.98148224      -6.36929047
Be       6.86279909       0.48994597       2.64217098      -5.70419583       4.80206153       0.91697809
Be       8.56631373       1.20002450       3.38981058      -5.56113234       1.32172950      -1.73143262
Be       0.78093567       3.69813110       3.74175826       2.35073567      -2.41527360      -0.85077864
Be       4.29270774       2.83347954       3.82976974      -4.21953066       0.63100111       1.82418820
Be       5.55149243       3.66800520       3.35962863       3.10928349      -0.48011285       0.44404626
Be       7.80261950       3.62742245       3.34820264       1.85054096       2.49847991       3.33907400
Be       0.96297501       5.46749150       2.98675520       4.37809270       2.23765468       7.83481546
Be       3.63410001       6.28675247       2.80036973      -0.70331584      -0.14560202       0.07772341
Be       5.47688306       6.04206644       3.27832133      -0.93083725      -3.03637891       1.33275040
Be       7.72738753       5.94443531       3.42760816      -0.59565577      -1.59240699      -0.05776947
Be       1.18599823       7.71821654       3.42454799       0.42583455       0.74682585      -1.03220637
Be       3.24329896       8.56377784       2.96047415       0.06095122      -1.24798819      -1.12000087
Be       4.90270862       7.85393039       3.39135098       1.40871723      -0.34415919      -1.48619721
Be       8.14210786       8.06596705       3.16942946       2.01025147      -0.74168668       1.52681171
Be       1.42328830       0.31832274       6.62591458       1.97446391      -0.66217873      -2.32234955
Be       3.16734495       0.74595875       6.46364189       1.89736802       0.73596746      -0.62119272
Be       5.62643791       0.69469405       6.04187239       0.09811013       4.94814926      -1.91520521
Be       7.92931757       0.91532752       5.56400255      -1.13697920       0.80839155       2.46436645
Be       1.11271983       3.47941770       5.71972943      -1.30031155       1.49705139      -0.13528666
Be       3.83950185       1.61462901       5.03022352       1.92364435      -0.43085990       2.42669569
Be       5.28728929       3.70518624       5.25108916       3.13366836      -1.84609969       1.44195076
Be       7.97396366       3.22292573       5.34164568       2.95081905      -3.53215021       0.18829957
Be       1.65282048       5.23768886       5.13053614      -1.65171440       0.93013622      -2.32463057
Be       3.20897199       5.71012699       5.90383209       0.64092393       2.05397288      -1.47221596
Be       5.54170128       5.70463860       5.46539088      -1.24352672      -2.56331433       1.21915129
Be       7.68402939       5.93520375       5.67315665       1.31251384       1.69239470      -2.18860709
Be       1.50054421       7.48629199       5.64878237      -3.14345042       0.99586010      -3.87952145
Be       3.00160889       7.89352572       6.11895680       3.99631304       4.43423545      -0.13502553
Be       5.84110164       8.00387894       5.74181547      -1.15354824       0.67044178       0.08784909
Be       7.84919590       8.04571434       5.63259192      -1.34246332      -0.67528045      -0.38708574
Be       1.44064655       1.72843964       7.77897205       4.22401213      -2.56041113      -1.21292873
Be       3.63271345       1.12576772       8.41145829      -2.49061456       1.44193357      -1.66869746
Be       5.53079196       1.38671131       8.03332428       1.29077871       0.16805854      -1.72613562
Be       7.61401751       1.27135783       7.66274524       1.09757698       3.42908721      -1.63355477
Be       0.86037578       3.72793645       7.83924385       1.45113972      -3.75234327      -2.11209163
Be       3.21041805       3.02810733       8.44402192      -5.02161399       2.60085969      -6.67594042
Be       5.47075622       4.11536939       8.16050343      -4.37690105      -2.84738307      -3.88673622
Be       8.20403469       3.39613373       7.27867091       0.43402299      -2.24457943      -0.45439533
Be       0.66816219       5.73036648       7.91812184       2.69224722       0.90942391       1.68944397
Be       3.47541058       5.54031897       7.97226073      -1.22776661      -0.44033725       0.99556424
Be       6.04998949       5.61233115       7.22059355       0.62690217      -4.72612452       1.20869332
Be       8.06989810       5.90362410       7.46527750      -1.83455945      -1.04931375       2.04648907
Be       0.48307472       7.88389375       8.23458490       4.67254784      -1.05756378      -1.89854278
Be       3.87103984       7.44866844       8.45817531      -0.76767013      -4.21702205      -0.51019589
Be       5.77991639       7.49088849       8.24527790       0.03370182       4.95005850      -0.27920476
Be       7.84730345       8.07189288       8.17078018      -1.49293654      -4.79569726       0.32269717
128
Lattice="9.05480957 0.0 0.0 0.0 9.05480957 0.0 0.0 0.0 9.05480957" Properties=species:S:1:pos:R:3:forces:R:3 etemperature=0.34469373 eentropy=20.533157930108977 energy=-338.19340977 stress="-0.571262877648901 -0.0034328096344669874 -0.016534757976166322 -0.0034328096344669874 -0.5381458587003245 -0.010764193002260043 -0.016534757976166322 -0.010764193002260043 -0.6095698369087075" free_energy=-341.73222987 pbc="T T T"
Be       8.52358988       8.87561090       0.73730408      -0.69799545      -0.11180138      -1.38159626
Be       2.20713030       0.21080584       8.80696992      -2.45835698       4.20108899       2.00691135
Be       3.08633030       8.13103681       0.86694758      -0.71828019       3.18715083       0.30853729
Be       6.46874129       0.36769427       8.78281495       0.99462177      -0.68699511      -0.31920986
Be       8.52333019       2.35121387       8.87289220      -0.75544222       0.57980019       1.11073082
Be       1.36321190       2.58565846       0.36290328       1.64542126       0.71989842      -1.70545699
Be       4.39394568       2.39136108       8.80913276       2.45498150      -1.03499654       2.69940626
Be       6.15878248       2.76562344       0.00878561       3.34117174      -6.52487096       3.39471122
Be       0.26278008       1.46518074       1.24945579      -0.75236110       0.87543453      -1.30038204
Be       2.12799597       4.52004775       8.93441945      -0.29105859      -0.43088474      -1.37440116
Be       4.80751206       4.26369414       0.03248938      -1.37399439      -0.62429668      -1.20541303
Be       9.04646991       4.49954513       0.22428329      -0.13087834      -0.77262631      -3.11335907
Be       8.85851669       6.95878133       0.25144744       5.47921592       1.79604070       5.43988912
Be       2.49155327       6.77549089       0.00307800      -0.31224655      -0.99765303      -2.00477407
Be       4.57403705       6.18545623       8.69354033       1.53123843      -2.02046809       0.27493748
Be       6.94022124       5.92826967       0.10658181       1.64821940       5.01049159       2.66086996
Be       6.73511205       0.12603598       1.35794083      -1.34306917      -6.76932465       5.87094405