18
Lattice="20.0 0.0 0.0 0.0 20.0 0.0 0.0 0.0 20.0" Properties=species:S:1:pos:R:3:Z:I:1:magmoms:R:1:tags:I:1:forces:R:3 energy=-10489.55812844196 pbc="F F F"
C     -1.17013400    -1.47577800     0.17499400   6    0.00000000        0    -1.56815580     2.79507120    -0.76668739
C     -2.36115200    -0.82167100    -0.11882700   6    0.00000000        0    -0.16270140     2.32303452     0.56484606
C     -2.44013100     0.67150000    -0.17860000   6    0.00000000        0     2.02229301    -2.82790031     0.59191431
C     -1.26232400     1.36909200     0.06036600   6    0.00000000        0    -1.18339664     0.77013330    -1.29789341
C     -0.01854000     0.72312800     0.05670200   6    0.00000000        0    -1.07419973    -0.36925658     1.74500082
C      1.14443200     1.48662600     0.08318700   6    0.00000000        0     3.69916573    -1.61783440    -0.76090157
C      2.37277300     0.72866500    -0.14058400   6    0.00000000        0    -1.37392125     4.20616144    -0.00855527
C      2.41308900    -0.64482500    -0.18170100   6    0.00000000        0     2.12875998     0.03440705     0.19354954
C      1.29853900    -1.33188900     0.11907300   6    0.00000000        0    -2.36950323    -1.85723763     0.33523355
C     -0.00372600    -0.72396500     0.19946100   6    0.00000000        0     2.74863254     1.10943875    -0.68521569
H     -1.05564800    -2.48924200     0.09474900   1    0.00000000        0    -0.05931681    -2.86477924     0.18395681
H     -3.32851200    -1.29527400    -0.20771000   1    0.00000000        0    -0.09072933    -0.62688032    -0.20352326
H     -3.36504000     1.08420200    -0.49368200   1    0.00000000        0    -0.88321513     0.71728377     0.06110147
H     -1.16999300     2.46280100    -0.02921400   1    0.00000000        0    -0.55872126    -0.14510689     0.14202298
H      1.30703300     2.58903200     0.17226800   1    0.00000000        0    -0.87737726    -0.81169711    -0.18413980
H      3.21337900     1.42991800    -0.34670400   1    0.00000000        0     0.02677664    -0.99735488     0.24831499
H      3.40092000    -1.12765600    -0.30782800   1    0.00000000        0    -0.53626790    -0.01413490    -0.03675907
H      1.32176500    -2.42597400     0.23607700   1    0.00000000        0     0.10824995     0.16694228    -0.11921265
21
Lattice="20.0 0.0 0.0 0.0 20.0 0.0 0.0 0.0 20.0" Properties=species:S:1:pos:R:3:Z:I:1:magmoms:R:1:tags:I:1:forces:R:3 energy=-17637.61328650102 pbc="F F F"
C      2.25146900    -0.88240000    -0.15036000   6    0.00000000        0    -1.77916495    -1.22176970     2.49790655
C      0.54628700     0.68733700    -1.67688900   6    0.00000000        0     1.06967386    -1.06557374    -0.62699363
C      2.67010700    -0.47778700    -1.39232100   6    0.00000000        0     0.61155284    -0.67188331     0.47199488
C      1.79639400     0.28383400    -2.13044700   6    0.00000000        0     0.50069160     2.57747825    -2.26449352
C     -3.49077100     0.98594500    -0.08882700   6    0.00000000        0     0.17946073     3.36709484     0.23239031
C      0.88307600    -0.62532900     0.26611100   6    0.00000000        0     3.11447179    -1.36523334     0.08977273
C      0.04215400     0.11534400    -0.55482700   6    0.00000000        0     0.57168605    -0.17872178     1.79789615
O      1.22070400    -2.12161200     2.16642500   8    0.00000000        0     0.67234851    -0.41884224     0.20707597
O     -1.55492800     2.54314100    -0.41230900   8    0.00000000        0    -1.01419735    -1.97897715     0.09989649
O     -0.60108300    -0.87230600     1.95661800   8    0.00000000        0    -3.25207346    -0.02736091     3.39942843
C      0.55469000    -1.30652400     1.56227000   6    0.00000000        0     0.89644955     0.25494402    -1.32059551
C     -2.03269200     1.41919600    -0.26309200   6    0.00000000        0     1.10486358     0.26998374     0.53383639
O     -1.22851000     0.22039400    -0.15186100   8    0.00000000        0    -2.72293673     1.21305681    -0.42824969
H     -0.83989000    -1.29431600     2.86633900   1    0.00000000        0     0.65826881     0.61511981    -1.72554391
H      2.75803900    -1.51939600     0.67575700   1    0.00000000        0    -0.14769659     0.95459681    -1.79512263
H     -0.11047300     1.24310100    -2.25766800   1    0.00000000        0    -0.93514371     1.31306292    -1.29274962
H      3.62586600    -0.81542000    -1.76536600   1    0.00000000        0     0.39494679     0.22142084    -0.23255874
H      2.16379100     0.83341600    -3.07200700   1    0.00000000        0    -0.45300733    -1.15966485     1.06476050
H     -3.97237200     1.36991100     0.85536100   1    0.00000000        0     0.72198239    -0.04850674    -0.61546282
H     -4.01974000     1.50281600    -0.91251100   1    0.00000000        0    -0.10274264    -0.30561151     0.16860197
H     -3.63364100    -0.03682700    -0.11232500   1    0.00000000        0    -0.08943376    -2.34461277    -0.26179034
