4
Lattice="2.656511574 0.0 0.0 -1.328255787 2.300606508 0.0 0.0 0.0 9.397698153" Properties=species:S:1:pos:R:3:forces:R:3 pulay_stress=-0.3744905475529955 energy=-31.98198926 stress="-0.3749059387098504 -0.0 -0.0 -0.0 -0.3749059387098504 -0.0 -0.0 -0.0 -0.3751261890838846" magmom=0.0002746 pbc="T T T"
Pu       0.00000000       0.00000000       2.55971000       0.00000000       0.00000000       0.00008500
Pu       0.00000000       0.00000000       7.25889000      -0.00000000      -0.00000000      -0.00355800
Pu       0.00000000       0.00000000       4.90934000      -0.00000000      -0.00000000      -0.00390100
Pu       0.00000000       0.00000000       0.21020000       0.00000000       0.00000000       0.00737400
