6
Lattice="2.479787 0.0 0.0 -1.239893 2.147558 0.0 0.0 0.0 24.294656" Properties=species:S:1:pos:R:3:forces:R:3:stress:R:1 tags=Surface env=bulk e_cut=520 k_prod=40 bader=F energy=-33.38981773 weights="1.0 1.0 0.0" pbc="T T T"
Ni       0.00000033       1.43170820       2.00537808      -0.00000000      -0.00000000      -0.00470706     -22.25152803
Ni       0.00000000       0.00000000      24.28710036       0.00000000       0.00000000       0.00549928     -22.25151688
Ni       1.23989367       0.71584980       4.04097872       0.00000000      -0.00000000      -0.00421769     -14.67323629
Ni       0.00000033       1.43170820       8.11737905       0.00000000       0.00000000       0.00470706      -0.00000518
Ni       0.00000000       0.00000000       6.08180271      -0.00000000       0.00000000       0.00421769       0.00000000
Ni       1.23989367       0.71584980      10.13033707      -0.00000000      -0.00000000      -0.00549928       0.00000000