9
Lattice="20.0 0.0 0.0 0.0 20.0 0.0 0.0 0.0 20.0" Properties=species:S:1:pos:R:3:Z:I:1:magmoms:R:1:tags:I:1:forces:R:3 energy=-4214.522353757427 pbc="F F F"
C     -0.26468800    -0.43877700    -0.09813700   6    0.00000000        0    -0.26388656    -1.00787160     1.26421434
C     -1.02913600     0.78256100     0.47120800   6    0.00000000        0     3.28335744     1.63116404     1.08721937
O      1.16243900    -0.36308100    -0.32648800   8    0.00000000        0     0.23767131     1.21706570    -0.41894319
H     -0.41283400    -1.32819100     0.55837500   1    0.00000000        0     0.66553025     0.54817454     0.48471736
H     -0.76215900    -0.88657200    -0.93062500   1    0.00000000        0    -0.52741611     0.31781506    -1.63151403
H     -1.63563900     0.71746900     1.38827900   1    0.00000000        0    -0.23608035    -0.85857582    -0.35843090
H     -0.11712300     1.46064600     0.95972600   1    0.00000000        0    -2.09373097    -1.01380144    -1.53418677
H     -1.58244400     1.30150800    -0.31839200   1    0.00000000        0     0.13799709     0.38674910     0.13623815
H      1.47470100     0.40039500    -0.92044900   1    0.00000000        0    -1.20122614    -1.21905564     0.96704276
9
Lattice="20.0 0.0 0.0 0.0 20.0 0.0 0.0 0.0 20.0" Properties=species:S:1:pos:R:3:Z:I:1:magmoms:R:1:tags:I:1:forces:R:3 energy=-4214.511512943932 pbc="F F F"
C     -0.25988400    -0.43794300    -0.09955400   6    0.00000000        0    -0.76162053    -1.53109683     1.03384086
C     -1.03305200     0.78324200     0.47384400   6    0.00000000        0     3.42007359     1.62557417     0.93714557
O      1.16266700    -0.36361500    -0.32673200   8    0.00000000        0     0.12861138     1.11513859    -0.30582438
H     -0.41714800    -1.34230300     0.54908200   1    0.00000000        0     0.73127939     0.76260049     0.46787182
H     -0.76722300    -0.91315600    -0.93366600   1    0.00000000        0    -0.26430753     0.65723247    -1.24815481
H     -1.63808100     0.73558000     1.39316400   1    0.00000000        0    -0.24682603    -0.90997836    -0.37744838
H     -0.11919500     1.45906500     0.95126100   1    0.00000000        0    -2.03926252    -0.99640193    -1.45221907
H     -1.56808600     1.31525500    -0.31920500   1    0.00000000        0     0.07668592     0.33236065     0.13105932
H      1.46003900     0.40123700    -0.91436300   1    0.00000000        0    -1.04107064    -1.05195035     0.81229209
9
Lattice="20.0 0.0 0.0 0.0 20.0 0.0 0.0 0.0 20.0" Properties=species:S:1:pos:R:3:Z:I:1:magmoms:R:1:tags:I:1:forces:R:3 energy=-4214.512813841551 pbc="F F F"
C     -0.25514500    -0.43740500    -0.10078800   6    0.00000000        0    -1.25511461    -2.04260245     0.77751706
C     -1.03634800     0.78426600     0.47671800   6    0.00000000        0     3.47098218     1.58888522     0.73660023
O      1.16291900    -0.36398900    -0.32702700   8    0.00000000        0    -0.02751741     0.89518078    -0.10291210
H     -0.41977600    -1.35483600     0.54074800   1    0.00000000        0     0.77827306     0.94521534     0.45290022
H     -0.77302000    -0.93864900    -0.93977800   1    0.00000000        0     0.00688552     0.99793487    -0.84525719
H     -1.64116600     0.75182900     1.39722800   1    0.00000000        0    -0.25457682    -0.95402012    -0.39769980
H     -0.12623400     1.45504800     0.93913000   1    0.00000000        0    -1.90894619    -0.92904280    -1.32170274
H     -1.55327600     1.33005900    -0.31971800   1    0.00000000        0     0.02056511     0.25729673     0.13999007
H      1.44258900     0.39955400    -0.90620000   1    0.00000000        0    -0.82597771    -0.75491674     0.56005021
9
Lattice="20.0 0.0 0.0 0.0 20.0 0.0 0.0 0.0 20.0" Properties=species:S:1:pos:R:3:Z:I:1:magmoms:R:1:tags:I:1:forces:R:3 energy=-4214.516716534409 pbc="F F F"
C     -0.25057300    -0.43727000    -0.10188700   6    0.00000000        0    -1.71321170    -2.50131950     0.53797984
C     -1.03900200     0.78563000     0.47979500   6    0.00000000        0     3.42334352     1.50952747     0.48111344
O      1.16317200    -0.36423400    -0.32734400   8    0.00000000        0    -0.21831885     0.56012020     0.18327883
H     -0.42057400    -1.36532000     0.53335400   1    0.00000000        0     0.80454434     1.08807931     0.44350449
H     -0.77890700    -0.96220800    -0.94804400   1    0.00000000        0     0.25679376     1.30901310    -0.46887177
H     -1.64492600     0.76607400     1.40040600   1    0.00000000        0    -0.25955167    -0.99007610    -0.41754525
H     -0.13801700     1.44871100     0.92358200   1    0.00000000        0    -1.68832241    -0.80227341    -1.13740796
H     -1.53814300     1.34575800    -0.31990400   1    0.00000000        0    -0.03304215     0.16230142     0.16071445
H      1.42281900     0.39601500    -0.89653100   1    0.00000000        0    -0.56686401    -0.33145367     0.21658688
9
Lattice="20.0 0.0 0.0 0.0 20.0 0.0 0.0 0.0 20.0" Properties=species:S:1:pos:R:3:Z:I:1:magmoms:R:1:tags:I:1:forces:R:3 energy=-4214.51324747409 pbc="F F F"
C     -0.24626800    -0.43764000    -0.10289600   6    0.00000000        0    -2.11642036    -2.87700889     0.33768249
C     -1.04100900     0.78732400     0.48302300   6    0.00000000        0     3.25558822     1.36674147     0.16549534
O      1.16339500    -0.36439800    -0.32763800   8    0.00000000        0    -0.42310108     0.13251828     0.53176701
H     -0.41944400    -1.37336100     0.52690300   1    0.00000000        0     0.80894020     1.18481662     0.44326551
H     -0.78427600    -0.98301900    -0.95758600   1    0.00000000        0     0.46816981     1.57032574    -0.14398795
H     -1.64938200     0.77817700     1.40262900   1    0.00000000        0    -0.26129062    -1.01708135    -0.43556073
H     -0.15408400     1.44032700     0.90501600   1    0.00000000        0    -1.35565179    -0.60101704    -0.89172985
H     -1.52282900     1.36211900    -0.31970800   1    0.00000000        0    -0.08770483     0.05014778     0.18860370
H      1.40133600     0.39161500    -0.88616800   1    0.00000000        0    -0.28314002     0.19418954    -0.19639647
9
Lattice="20.0 0.0 0.0 0.0 20.0 0.0 0.0 0.0 20.0" Properties=species:S:1:pos:R:3:Z:I:1:magmoms:R:1:tags:I:1:forces:R:3 energy=-4214.49503490742 pbc="F F F"
C     -0.24232500    -0.43859900    -0.10385200   6    0.00000000        0    -2.45629075    -3.15204115     0.18132288
C     -1.04238800     0.78932000     0.48633400   6    0.00000000        0     2.94072712     1.13323806    -0.21341100
O      1.16355800    -0.36454400    -0.32785500   8    0.00000000        0    -0.61136377    -0.33068167     0.89707073
H     -0.41634600    -1.37866800     0.52142300   1    0.00000000        0     0.79099571     1.23027531     0.45571614
H     -0.78859800    -1.00036400    -0.96762100   1    0.00000000        0     0.63404913     1.77249005     0.12092858
H     -1.65454000     0.78801100     1.40383400   1    0.00000000        0    -0.25867469    -1.03369086    -0.45063831
H     -0.17367100     1.43036600     0.88401400   1    0.00000000        0    -0.88540905    -0.30671836    -0.57733572
H     -1.50749300     1.37885000    -0.31905500   1    0.00000000        0    -0.14713885    -0.07445219     0.21735189
H      1.37884000     0.38761500    -0.87611900   1    0.00000000        0    -0.00396531     0.76287750    -0.63241516
9
Lattice="20.0 0.0 0.0 0.0 20.0 0.0 0.0 0.0 20.0" Properties=species:S:1:pos:R:3:Z:I:1:magmoms:R:1:tags:I:1:forces:R:3 energy=-4214.459477039157 pbc="F F F"
C     -0.23882800    -0.44020600    -0.10478400   6    0.00000000        0    -2.73121300    -3.31726651     0.06279641
C     -1.04319100     0.79157100     0.48964500   6    0.00000000        0     2.45867070     0.78432089    -0.65087065
O      1.16362900    -0.36474200    -0.32793900   8    0.00000000        0    -0.74791093    -0.73233737     1.20656598
H     -0.41130300    -1.38108100     0.51697200   1    0.00000000        0     0.75082382     1.22044560     0.48430133
H     -0.79144700    -1.01366400    -0.97749300   1    0.00000000        0     0.75414973     1.91410607     0.32748576
H     -1.66038900     0.79548100     1.40396800   1    0.00000000        0    -0.25004597    -1.03849074    -0.46199896
H     -0.19564400     1.41953700     0.86135200   1    0.00000000        0    -0.25626777     0.09727046    -0.19161060
H     -1.49231500     1.39561500    -0.31787200   1    0.00000000        0    -0.21437696    -0.20526820     0.24001622
H      1.35604400     0.38540100    -0.86746100   1    0.00000000        0     0.23634235     1.27573405    -1.01845128
9
Lattice="20.0 0.0 0.0 0.0 20.0 0.0 0.0 0.0 20.0" Properties=species:S:1:pos:R:3:Z:I:1:magmoms:R:1:tags:I:1:forces:R:3 energy=-4214.407874766923 pbc="F F F"
C     -0.23584500    -0.44250100    -0.10571300   6    0.00000000        0    -2.94181709    -3.36766506    -0.02806700
C     -1.04350600     0.79400500     0.49286000   6    0.00000000        0     1.80905902     0.30910229    -1.13239807
O      1.16358900    -0.36505300    -0.32784100   8    0.00000000        0    -0.80567230    -0.95512306     1.37725116
H     -0.40439900    -1.38058200     0.51363800   1    0.00000000        0     0.68908057     1.15256749     0.53210498
H     -0.79251200    -1.02250500    -0.98668400   1    0.00000000        0     0.83133056     1.99808369     0.48164143
H     -1.66690500     0.80053400     1.40299200   1    0.00000000        0    -0.23350440    -1.03016096    -0.46903378
H     -0.21847500     1.40882500     0.83798100   1    0.00000000        0     0.53312398     0.61457868     0.25647778
H     -1.47748800     1.41206900    -0.31609900   1    0.00000000        0    -0.29098478    -0.33535554     0.25031395
H      1.33357000     0.38623400    -0.86115900   1    0.00000000        0     0.40977746     1.61271454    -1.27011422
9
Lattice="20.0 0.0 0.0 0.0 20.0 0.0 0.0 0.0 20.0" Properties=species:S:1:pos:R:3:Z:I:1:magmoms:R:1:tags:I:1:forces:R:3 energy=-4214.346298946273 pbc="F F F"
C     -0.23342400    -0.44549900    -0.10665800   6    0.00000000        0    -3.08851294    -3.30057695    -0.10091115
C     -1.04345900     0.79652600     0.49587900   6    0.00000000        0     1.03097095    -0.27468926    -1.62762413
O      1.16342600    -0.36551300    -0.32753300   8    0.00000000        0    -0.77843107    -0.90568748     1.34747201
H     -0.39576500    -1.37730500     0.51155300   1    0.00000000        0     0.60703187     1.02563111     0.60132306
H     -0.79158700    -1.02663000    -0.99480900   1    0.00000000        0     0.86903252     2.02843281     0.58966836
H     -1.67405000     0.80316200     1.40087700   1    0.00000000        0    -0.20761914    -1.00778158    -0.47091774
H     -0.24025900     1.39948300     0.81498700   1    0.00000000        0     1.44009939     1.21783565     0.73832618
H     -1.46321000     1.42788400    -0.31370600   1    0.00000000        0    -0.37666237    -0.45798907     0.24367113
H      1.31185000     0.39095500    -0.85784600   1    0.00000000        0     0.50753267     1.67677273    -1.32348268
9
Lattice="20.0 0.0 0.0 0.0 20.0 0.0 0.0 0.0 20.0" Properties=species:S:1:pos:R:3:Z:I:1:magmoms:R:1:tags:I:1:forces:R:3 energy=-4214.285590390703 pbc="F F F"
C     -0.23160000    -0.44919900    -0.10763300   6    0.00000000        0    -3.17071064    -3.11579216    -0.16178145
C     -1.04320300     0.79902100     0.49860500   6    0.00000000        0     0.22649460    -0.89995664    -2.08429127
O      1.16314200    -0.36611400    -0.32701700   8    0.00000000        0    -0.68464572    -0.56036122     1.10656880
H     -0.38556900    -1.37152200     0.51089200   1    0.00000000        0     0.50669971     0.84123429     0.69248849
H     -0.78855900    -1.02592200    -1.00160800   1    0.00000000        0     0.86974949     2.00820337     0.65582650
H     -1.68178100     0.80339400     1.39760300   1    0.00000000        0    -0.17226816    -0.97118061    -0.46622688
H     -0.25883100     1.39296400     0.79350300   1    0.00000000        0     2.35370366     1.82919843     1.20114613
H     -1.44967400     1.44277900    -0.31070000   1    0.00000000        0    -0.46938376    -0.56737600     0.21764386
H      1.29109900     0.39976800    -0.85767900   1    0.00000000        0     0.54423464     1.44041941    -1.16575712